#Header
25002 atoms
34 atom types
0 10 xlo xhi
0 10 ylo yhi
0 10 zlo zhi

Masses

1 0.001728
2 0.001728
3 0.001728
4 0.001728
5 0.001728
6 0.001728
7 0.001728
8 0.001728
9 0.001728
10 0.001728
11 0.001728
12 0.001728
13 0.001728
14 0.001728
15 0.001728
16 0.001728
17 0.001728
18 0.001728
19 0.001728
20 0.001728
21 0.001728
22 0.001728
23 0.001728
24 0.001728
25 0.001728
26 0.001728
27 0.001728
28 0.001728
29 0.001728
30 0.001728
31 0.001728
32 0.001728
33 0.001728
34 0.001728

Atoms # full

1 7 1.32986 9.68391 3.0948 1 0.12 1.90986
2 17 8.01829 8.22613 2.60411 2 0.12 1.90986
3 34 0.724334 9.02389 2.51622 3 0.12 1.90986
4 28 8.83265 1.51909 3.3891 4 0.12 1.90986
5 22 1.58921 8.97546 2.95724 5 0.12 1.90986
6 28 5.19753 3.00776 9.51554 6 0.12 1.90986
7 13 7.72196 2.19253 6.51434 7 0.12 1.90986
8 5 1.23765 3.24851 2.66693 8 0.12 1.90986
9 21 8.87764 6.56876 2.24138 9 0.12 1.90986
10 27 3.01061 9.01794 4.8781 10 0.12 1.90986
11 4 2.48653 7.24627 7.20463 11 0.12 1.90986
12 9 0.28551 4.73262 6.71205 12 0.12 1.90986
13 30 7.92735 4.31724 1.26172 13 0.12 1.90986
14 5 9.26633 0.209471 6.69508 14 0.12 1.90986
15 8 5.00896 4.46926 1.33182 15 0.12 1.90986
16 1 3.39946 0.601733 8.58466 16 0.12 1.90986
17 4 1.49218 3.12973 0.193619 17 0.12 1.90986
18 4 0.358477 2.40015 8.14453 18 0.12 1.90986
19 1 6.58095 9.53282 8.27618 19 0.12 1.90986
20 13 1.74183 8.37217 4.34097 20 0.12 1.90986
21 2 6.7592 4.02293 1.36252 21 0.12 1.90986
22 5 6.03875 2.08173 6.09367 22 0.12 1.90986
23 1 7.02138 1.00759 9.05578 23 0.12 1.90986
24 15 8.04472 2.98836 8.33762 24 0.12 1.90986
25 18 3.59562 5.26836 2.37781 25 0.12 1.90986
26 4 4.13698 4.74236 6.84556 26 0.12 1.90986
27 31 9.68754 7.11005 8.82133 27 0.12 1.90986
28 4 6.00753 6.53635 2.42328 28 0.12 1.90986
29 28 8.96566 1.10654 9.35313 29 0.12 1.90986
30 4 1.44045 6.02826 1.09231 30 0.12 1.90986
31 12 8.26031 7.4505 4.49669 31 0.12 1.90986
32 4 1.78418 6.25812 7.74831 32 0.12 1.90986
33 5 1.28487 6.0246 1.97064 33 0.12 1.90986
34 6 3.50182 4.75056 3.02916 34 0.12 1.90986
35 4 8.62945 0.375117 3.16993 35 0.12 1.90986
36 4 5.36167 0.839787 5.75418 36 0.12 1.90986
37 18 9.02085 2.8548 1.66105 37 0.12 1.90986
38 18 6.81068 1.88 2.68488 38 0.12 1.90986
39 2 6.67046 8.8377 9.62233 39 0.12 1.90986
40 5 3.45235 8.49167 5.79989 40 0.12 1.90986
41 27 0.781268 5.90675 0.381989 41 0.12 1.90986
42 28 5.10402 6.33148 3.31279 42 0.12 1.90986
43 15 6.05129 9.47518 7.37668 43 0.12 1.90986
44 24 1.61389 6.78013 1.25675 44 0.12 1.90986
45 13 8.92703 8.17179 7.62162 45 0.12 1.90986
46 28 4.22971 3.93314 7.67537 46 0.12 1.90986
47 17 0.393384 4.84998 2.5545 47 0.12 1.90986
48 25 7.72204 6.4937 9.39968 48 0.12 1.90986
49 13 3.45277 1.94463 2.72665 49 0.12 1.90986
50 25 9.68343 3.05185 4.4421 50 0.12 1.90986
51 12 6.68309 9.20161 2.54703 51 0.12 1.90986
52 6 4.80802 6.36466 3.53058 52 0.12 1.90986
53 6 1.50551 3.00401 7.83937 53 0.12 1.90986
54 4 9.31619 3.39505 2.48004 54 0.12 1.90986
55 10 9.73992 4.91356 7.06929 55 0.12 1.90986
56 6 0.92646 8.24839 6.13307 56 0.12 1.90986
57 31 4.50306 7.85167 9.41255 57 0.12 1.90986
58 2 5.07695 8.34444 9.08133 58 0.12 1.90986
59 5 2.93775 5.14266 6.06627 59 0.12 1.90986
60 31 7.68367 1.42333 3.07301 60 0.12 1.90986
61 1 0.333481 9.00713 6.79227 61 0.12 1.90986
62 5 0.677405 0.610795 2.46721 62 0.12 1.90986
63 6 6.93193 9.80613 8.65612 63 0.12 1.90986
64 25 1.60247 9.79539 2.66163 64 0.12 1.90986
65 4 2.44337 3.79335 8.70857 65 0.12 1.90986
66 12 2.91722 1.18439 1.4602 66 0.12 1.90986
67 34 6.79012 0.66257 9.05107 67 0.12 1.90986
68 6 7.34445 8.24402 8.5378 68 0.12 1.90986
69 1 7.20047 1.30848 9.66801 69 0.12 1.90986
70 5 0.812948 4.71397 9.4702 70 0.12 1.90986
71 4 1.33311 0.755681 5.81608 71 0.12 1.90986
72 5 2.35255 5.16769 8.41526 72 0.12 1.90986
73 9 8.90772 3.95334 6.5886 73 0.12 1.90986
74 8 8.15162 1.15131 8.83609 74 0.12 1.90986
75 5 4.17493 2.30256 3.66331 75 0.12 1.90986
76 8 7.28437 4.90339 3.21482 76 0.12 1.90986
77 2 4.15223 7.24737 2.23999 77 0.12 1.90986
78 31 7.03871 7.79919 9.72367 78 0.12 1.90986
79 16 9.43183 9.35457 0.94737 79 0.12 1.90986
80 18 4.89417 5.74813 3.84302 80 0.12 1.90986
81 13 1.81597 0.218013 7.22178 81 0.12 1.90986
82 5 3.88114 9.40136 7.54999 82 0.12 1.90986
83 11 4.78205 0.720544 1.81876 83 0.12 1.90986
84 2 3.39399 3.23855 5.51526 84 0.12 1.90986
85 31 4.04721 9.4432 9.31529 85 0.12 1.90986
86 13 7.95796 7.21103 4.01593 86 0.12 1.90986
87 5 5.50389 2.06862 1.05958 87 0.12 1.90986
88 19 1.16545 5.8589 1.97859 88 0.12 1.90986
89 5 7.03368 9.0767 9.79586 89 0.12 1.90986
90 23 8.84574 7.65879 2.55951 90 0.12 1.90986
91 13 1.35507 9.8122 6.75163 91 0.12 1.90986
92 19 5.63028 9.43108 0.81131 92 0.12 1.90986
93 4 8.30665 0.920593 7.94273 93 0.12 1.90986
94 10 6.62405 2.9346 4.3001 94 0.12 1.90986
95 6 7.01535 4.76243 3.46272 95 0.12 1.90986
96 4 0.737852 0.317328 9.037 96 0.12 1.90986
97 34 8.03526 0.930118 6.74987 97 0.12 1.90986
98 6 9.30039 3.43812 2.19191 98 0.12 1.90986
99 1 6.89308 6.61704 4.44296 99 0.12 1.90986
100 6 3.61458 3.02556 2.90267 100 0.12 1.90986
101 6 6.03352 0.368878 2.12435 101 0.12 1.90986
102 32 0.472425 0.489044 8.62236 102 0.12 1.90986
103 11 2.05368 0.479939 7.80474 103 0.12 1.90986
104 5 5.76005 8.96051 5.23737 104 0.12 1.90986
105 31 2.46362 3.74968 6.14028 105 0.12 1.90986
106 24 3.1781 7.36431 8.40533 106 0.12 1.90986
107 13 5.39852 5.61039 6.83329 107 0.12 1.90986
108 32 1.84029 7.53252 7.3139 108 0.12 1.90986
109 31 0.251933 8.61588 1.98609 109 0.12 1.90986
110 24 9.17159 3.26372 1.82608 110 0.12 1.90986
111 8 0.324117 2.1946 9.73231 111 0.12 1.90986
112 21 9.31993 1.47961 0.249438 112 0.12 1.90986
113 8 8.34354 2.79227 5.01154 113 0.12 1.90986
114 17 4.24028 0.725165 7.54024 114 0.12 1.90986
115 8 8.40645 6.39415 3.63658 115 0.12 1.90986
116 21 3.14398 1.73504 9.46484 116 0.12 1.90986
117 31 9.52241 2.25469 1.60608 117 0.12 1.90986
118 25 5.58035 2.638 7.35122 118 0.12 1.90986
119 19 9.55663 9.77478 7.21169 119 0.12 1.90986
120 5 3.18214 4.08183 9.16478 120 0.12 1.90986
121 4 3.57373 4.07684 3.14533 121 0.12 1.90986
122 4 1.37801 5.03541 6.34266 122 0.12 1.90986
123 4 9.49973 9.72749 6.47139 123 0.12 1.90986
124 5 6.1222 6.63263 6.33409 124 0.12 1.90986
125 8 9.33916 7.79893 1.45766 125 0.12 1.90986
126 31 0.707773 5.81837 3.34117 126 0.12 1.90986
127 21 9.15183 5.40783 5.21006 127 0.12 1.90986
128 31 2.28057 2.89422 7.09247 128 0.12 1.90986
129 6 4.90569 7.92428 8.34239 129 0.12 1.90986
130 13 9.27291 6.72088 3.70154 130 0.12 1.90986
131 21 0.33969 8.524 1.19492 131 0.12 1.90986
132 27 6.52349 3.06783 7.67494 132 0.12 1.90986
133 4 7.16736 0.320957 4.55098 133 0.12 1.90986
134 18 5.314 1.97753 4.96286 134 0.12 1.90986
135 13 9.10775 8.29358 7.26455 135 0.12 1.90986
136 9 3.5349 8.03851 3.80254 136 0.12 1.90986
137 6 7.33227 3.95853 8.59718 137 0.12 1.90986
138 9 3.89857 9.12274 8.45898 138 0.12 1.90986
139 7 0.781876 4.85296 8.18877 139 0.12 1.90986
140 4 7.17546 1.20767 0.971412 140 0.12 1.90986
141 31 6.92475 8.54665 0.527499 141 0.12 1.90986
142 30 0.226559 5.68423 1.70555 142 0.12 1.90986
143 31 2.33556 8.48714 6.35721 143 0.12 1.90986
144 6 7.09003 6.52863 2.94571 144 0.12 1.90986
145 6 9.78716 5.51714 7.28715 145 0.12 1.90986
146 16 1.00706 7.69439 2.47331 146 0.12 1.90986
147 31 1.87911 5.39086 2.07024 147 0.12 1.90986
148 29 1.97481 5.49424 9.36186 148 0.12 1.90986
149 14 5.21533 2.72376 3.46796 149 0.12 1.90986
150 21 6.98738 5.69082 6.91413 150 0.12 1.90986
151 11 2.77968 0.523427 4.80669 151 0.12 1.90986
152 9 7.36765 2.13164 2.34161 152 0.12 1.90986
153 25 1.29357 5.56327 0.544814 153 0.12 1.90986
154 32 9.53363 4.27979 7.43715 154 0.12 1.90986
155 5 6.36128 0.969342 0.532061 155 0.12 1.90986
156 31 6.89456 8.57095 3.57029 156 0.12 1.90986
157 2 6.70287 4.58165 9.51282 157 0.12 1.90986
158 17 8.16396 1.6198 3.69597 158 0.12 1.90986
159 31 5.22564 4.61035 2.76912 159 0.12 1.90986
160 23 6.59893 7.82856 4.66965 160 0.12 1.90986
161 4 1.75119 8.21905 3.82498 161 0.12 1.90986
162 5 1.7503 8.52706 5.61374 162 0.12 1.90986
163 21 8.83163 0.531259 5.44534 163 0.12 1.90986
164 5 7.57241 7.2556 9.06811 164 0.12 1.90986
165 17 2.7311 0.183891 8.02151 165 0.12 1.90986
166 13 9.21911 0.748195 1.11574 166 0.12 1.90986
167 14 2.61001 0.47915 9.69484 167 0.12 1.90986
168 11 8.67821 7.99501 8.45109 168 0.12 1.90986
169 5 6.24077 7.72529 2.92381 169 0.12 1.90986
170 13 6.81204 0.748426 9.21637 170 0.12 1.90986
171 21 0.984315 8.98018 6.79125 171 0.12 1.90986
172 4 3.71326 0.409284 5.00714 172 0.12 1.90986
173 17 4.35712 1.0103 2.81092 173 0.12 1.90986
174 28 0.949833 2.99249 0.852338 174 0.12 1.90986
175 30 3.9309 3.13706 3.14219 175 0.12 1.90986
176 5 5.60227 0.552475 2.97098 176 0.12 1.90986
177 20 5.80063 1.18879 8.24909 177 0.12 1.90986
178 17 1.6237 2.03063 8.25552 178 0.12 1.90986
179 13 4.3889 7.88772 2.74189 179 0.12 1.90986
180 2 4.47561 7.61018 0.991722 180 0.12 1.90986
181 13 6.33305 1.10446 4.29565 181 0.12 1.90986
182 34 5.3174 1.02662 6.70256 182 0.12 1.90986
183 6 0.300742 6.73303 3.02953 183 0.12 1.90986
184 14 9.42655 6.93983 5.21103 184 0.12 1.90986
185 25 9.4123 8.18523 1.13035 185 0.12 1.90986
186 7 2.24515 5.76797 9.30526 186 0.12 1.90986
187 4 1.37482 4.12806 3.71214 187 0.12 1.90986
188 10 1.62104 6.91769 5.06273 188 0.12 1.90986
189 19 7.20662 5.94249 0.717947 189 0.12 1.90986
190 6 6.57078 8.56571 0.96523 190 0.12 1.90986
191 26 9.68078 2.24331 1.92319 191 0.12 1.90986
192 23 5.95022 5.89515 1.82831 192 0.12 1.90986
193 10 7.64511 9.21763 3.10964 193 0.12 1.90986
194 5 3.47354 7.45507 0.408871 194 0.12 1.90986
195 6 1.54956 3.3383 7.50698 195 0.12 1.90986
196 5 1.47429 1.12627 5.43852 196 0.12 1.90986
197 2 7.84815 3.28306 0.457158 197 0.12 1.90986
198 4 3.50681 8.54305 2.99171 198 0.12 1.90986
199 24 8.51368 2.12686 7.8442 199 0.12 1.90986
200 5 3.28262 7.38195 1.23801 200 0.12 1.90986
201 34 2.4226 2.78311 9.48585 201 0.12 1.90986
202 17 5.92497 7.75926 0.849886 202 0.12 1.90986
203 4 6.28308 6.50115 1.85613 203 0.12 1.90986
204 13 7.48213 9.71703 2.03641 204 0.12 1.90986
205 4 0.956626 9.47681 1.45872 205 0.12 1.90986
206 20 6.84194 3.49051 3.56394 206 0.12 1.90986
207 29 9.08841 6.70557 8.67142 207 0.12 1.90986
208 4 6.07919 5.79531 8.94808 208 0.12 1.90986
209 6 6.42887 3.21601 4.29964 209 0.12 1.90986
210 10 9.51172 6.52645 3.21942 210 0.12 1.90986
211 21 9.01179 4.12148 6.2382 211 0.12 1.90986
212 15 2.31269 0.643919 8.15853 212 0.12 1.90986
213 4 3.64813 7.46167 8.12455 213 0.12 1.90986
214 27 7.54032 2.46514 0.187614 214 0.12 1.90986
215 31 9.63598 8.71454 9.33543 215 0.12 1.90986
216 5 5.80391 9.6776 8.92454 216 0.12 1.90986
217 4 0.970212 3.51521 9.59865 217 0.12 1.90986
218 4 2.31417 1.10409 7.9407 218 0.12 1.90986
219 2 2.11616 6.63664 3.03658 219 0.12 1.90986
220 14 8.70497 1.05379 8.81979 220 0.12 1.90986
221 34 6.02602 7.63534 8.12492 221 0.12 1.90986
222 9 7.48479 7.09469 1.19944 222 0.12 1.90986
223 29 3.53176 3.69194 2.0963 223 0.12 1.90986
224 5 4.33184 3.41102 4.73158 224 0.12 1.90986
225 13 5.35999 6.05602 4.83805 225 0.12 1.90986
226 26 2.54585 2.98469 3.54446 226 0.12 1.90986
227 26 5.93784 5.18576 7.36543 227 0.12 1.90986
228 4 2.48526 8.35736 3.36535 228 0.12 1.90986
229 13 2.08707 4.32353 8.96288 229 0.12 1.90986
230 5 6.4263 8.56712 1.86183 230 0.12 1.90986
231 21 4.60349 4.42363 1.19263 231 0.12 1.90986
232 4 4.67177 2.61211 5.03858 232 0.12 1.90986
233 18 6.44647 0.235101 0.893227 233 0.12 1.90986
234 2 7.4665 3.63265 5.00438 234 0.12 1.90986
235 4 1.95073 9.67592 4.37258 235 0.12 1.90986
236 32 7.62928 7.0361 9.41525 236 0.12 1.90986
237 1 5.60849 1.35155 7.07748 237 0.12 1.90986
238 30 6.76452 4.97971 5.31429 238 0.12 1.90986
239 5 2.0463 1.92479 9.05032 239 0.12 1.90986
240 7 7.78102 4.23302 2.6819 240 0.12 1.90986
241 5 2.0254 8.6486 6.75372 241 0.12 1.90986
242 5 4.07176 2.34533 5.39522 242 0.12 1.90986
243 5 0.428217 7.76628 0.955323 243 0.12 1.90986
244 13 2.2833 7.68451 0.464974 244 0.12 1.90986
245 31 9.33692 0.864546 5.38622 245 0.12 1.90986
246 33 4.89238 8.8019 9.59624 246 0.12 1.90986
247 4 7.42057 8.78902 2.16201 247 0.12 1.90986
248 28 3.40771 6.06066 6.1965 248 0.12 1.90986
249 8 2.86992 0.439902 8.93992 249 0.12 1.90986
250 11 4.99052 8.40475 2.54912 250 0.12 1.90986
251 4 4.87738 9.67212 4.05398 251 0.12 1.90986
252 9 9.22496 3.99085 7.01271 252 0.12 1.90986
253 18 3.07412 2.52239 1.70416 253 0.12 1.90986
254 17 6.90234 9.50079 1.53157 254 0.12 1.90986
255 31 0.312117 4.82902 5.33094 255 0.12 1.90986
256 11 1.79749 6.36358 5.40837 256 0.12 1.90986
257 5 2.48484 5.9283 2.19376 257 0.12 1.90986
258 14 1.42163 0.438374 7.37334 258 0.12 1.90986
259 32 7.89241 7.01142 3.28536 259 0.12 1.90986
260 4 2.05179 0.630292 5.65358 260 0.12 1.90986
261 6 8.48528 8.58485 2.33959 261 0.12 1.90986
262 11 9.46188 8.14591 3.01759 262 0.12 1.90986
263 31 2.0604 8.50099 5.88514 263 0.12 1.90986
264 4 0.819307 0.512107 2.90932 264 0.12 1.90986
265 14 3.14474 6.6007 2.33735 265 0.12 1.90986
266 17 4.14626 8.77769 1.31181 266 0.12 1.90986
267 5 3.27742 4.53031 4.52898 267 0.12 1.90986
268 21 8.4653 3.8858 4.7049 268 0.12 1.90986
269 5 5.49636 2.07385 7.15636 269 0.12 1.90986
270 4 6.69352 3.67604 1.17015 270 0.12 1.90986
271 4 1.45999 3.58873 6.43929 271 0.12 1.90986
272 13 4.43577 8.63352 1.23161 272 0.12 1.90986
273 4 1.44275 4.00271 2.27659 273 0.12 1.90986
274 28 1.38715 6.51369 2.96864 274 0.12 1.90986
275 13 8.70188 3.69148 0.298068 275 0.12 1.90986
276 26 7.98655 8.81967 2.67169 276 0.12 1.90986
277 11 4.70134 3.31827 6.45423 277 0.12 1.90986
278 5 0.805686 3.65379 3.521 278 0.12 1.90986
279 4 0.775834 9.34051 8.10653 279 0.12 1.90986
280 31 5.85452 0.285114 6.97955 280 0.12 1.90986
281 5 4.52649 8.08071 7.82111 281 0.12 1.90986
282 5 0.861214 0.479805 7.8962 282 0.12 1.90986
283 13 5.74277 3.49535 1.40712 283 0.12 1.90986
284 28 2.81927 5.12168 1.35291 284 0.12 1.90986
285 18 6.83332 4.55067 8.64367 285 0.12 1.90986
286 14 4.78751 6.47451 6.62075 286 0.12 1.90986
287 18 4.24551 0.726438 0.589873 287 0.12 1.90986
288 3 7.45644 9.36659 0.598416 288 0.12 1.90986
289 2 8.11282 9.43845 1.49356 289 0.12 1.90986
290 28 8.70568 1.62986 9.08764 290 0.12 1.90986
291 4 8.98607 3.83936 5.83031 291 0.12 1.90986
292 11 3.20498 3.6137 8.33775 292 0.12 1.90986
293 4 3.2079 2.17856 7.17394 293 0.12 1.90986
294 14 3.31968 4.61623 5.47036 294 0.12 1.90986
295 27 6.31437 9.50296 0.344188 295 0.12 1.90986
296 11 8.82245 9.79266 7.71245 296 0.12 1.90986
297 8 6.11775 5.58222 3.2801 297 0.12 1.90986
298 13 4.62179 2.59477 4.79974 298 0.12 1.90986
299 4 4.75724 6.83511 9.33694 299 0.12 1.90986
300 10 1.76855 2.05734 4.08357 300 0.12 1.90986
301 13 9.24577 3.7605 8.67364 301 0.12 1.90986
302 31 0.531806 0.844394 2.98109 302 0.12 1.90986
303 6 6.18949 4.07644 9.16194 303 0.12 1.90986
304 8 7.23117 5.32803 9.53988 304 0.12 1.90986
305 13 2.90822 0.431237 0.360052 305 0.12 1.90986
306 26 1.70356 7.63626 9.31151 306 0.12 1.90986
307 31 7.55074 4.65129 2.38531 307 0.12 1.90986
308 3 4.8885 4.10293 0.634443 308 0.12 1.90986
309 4 4.79114 4.21625 7.79614 309 0.12 1.90986
310 5 8.48201 5.78877 8.7877 310 0.12 1.90986
311 13 0.305662 3.85268 2.54967 311 0.12 1.90986
312 34 9.1787 9.45466 7.08764 312 0.12 1.90986
313 31 3.72051 9.4778 2.09587 313 0.12 1.90986
314 33 3.63227 5.41691 8.40698 314 0.12 1.90986
315 2 2.3836 8.63101 8.26617 315 0.12 1.90986
316 3 3.63057 7.78876 6.40429 316 0.12 1.90986
317 4 4.53232 2.54449 7.44721 317 0.12 1.90986
318 10 1.09614 4.76147 9.08831 318 0.12 1.90986
319 13 1.04347 5.10927 0.773043 319 0.12 1.90986
320 10 2.34796 5.36766 9.71465 320 0.12 1.90986
321 30 0.854166 8.51918 8.66062 321 0.12 1.90986
322 5 8.83563 7.55035 1.80123 322 0.12 1.90986
323 31 8.67688 9.25762 5.44591 323 0.12 1.90986
324 19 4.78796 6.44641 4.70332 324 0.12 1.90986
325 26 5.806 2.88149 5.58511 325 0.12 1.90986
326 6 9.52234 5.06473 0.391553 326 0.12 1.90986
327 10 9.77293 1.75287 1.93075 327 0.12 1.90986
328 6 6.55021 4.0941 4.94738 328 0.12 1.90986
329 5 3.2113 7.42236 5.53669 329 0.12 1.90986
330 26 3.04327 7.62371 8.56158 330 0.12 1.90986
331 31 2.88211 6.56082 6.30977 331 0.12 1.90986
332 4 4.63516 2.87166 3.57213 332 0.12 1.90986
333 9 7.70911 9.1301 7.4297 333 0.12 1.90986
334 18 7.5965 4.19901 1.51654 334 0.12 1.90986
335 31 1.63923 3.96268 6.75186 335 0.12 1.90986
336 19 8.33823 4.97622 4.09894 336 0.12 1.90986
337 9 8.47886 7.99673 8.65186 337 0.12 1.90986
338 31 5.62926 7.48627 5.16876 338 0.12 1.90986
339 8 3.06309 5.3878 0.395497 339 0.12 1.90986
340 5 7.15658 1.72077 6.08365 340 0.12 1.90986
341 2 0.339802 6.86485 9.09651 341 0.12 1.90986
342 5 3.85053 5.67836 6.67443 342 0.12 1.90986
343 4 3.29314 4.92568 2.02441 343 0.12 1.90986
344 4 8.31436 7.16568 0.689958 344 0.12 1.90986
345 5 1.6061 5.76935 5.76657 345 0.12 1.90986
346 25 5.56323 0.636606 4.69033 346 0.12 1.90986
347 12 4.35851 5.27232 1.26395 347 0.12 1.90986
348 6 1.59774 5.92543 4.28622 348 0.12 1.90986
349 11 3.20799 4.42407 0.211004 349 0.12 1.90986
350 11 1.95329 4.97986 4.63503 350 0.12 1.90986
351 34 9.62939 0.248778 9.10898 351 0.12 1.90986
352 5 5.90973 3.53269 9.53519 352 0.12 1.90986
353 26 7.12569 3.5062 4.76784 353 0.12 1.90986
354 31 0.390988 8.70852 5.65711 354 0.12 1.90986
355 4 9.80781 6.47408 8.3813 355 0.12 1.90986
356 13 0.553347 5.23424 4.71771 356 0.12 1.90986
357 28 7.31415 6.50023 9.31114 357 0.12 1.90986
358 16 1.49371 8.85708 8.63322 358 0.12 1.90986
359 4 8.33135 8.90024 1.11814 359 0.12 1.90986
360 12 9.49647 8.71533 8.99133 360 0.12 1.90986
361 4 8.51278 2.78657 0.946627 361 0.12 1.90986
362 10 3.15914 1.72306 7.43399 362 0.12 1.90986
363 5 3.7168 7.25518 5.06294 363 0.12 1.90986
364 4 0.630946 3.00906 3.18573 364 0.12 1.90986
365 8 9.04757 5.50111 5.02485 365 0.12 1.90986
366 9 4.79775 7.96231 9.40743 366 0.12 1.90986
367 4 8.24186 5.38353 5.7718 367 0.12 1.90986
368 9 7.73328 3.13036 6.77382 368 0.12 1.90986
369 9 5.31118 2.76096 5.43066 369 0.12 1.90986
370 1 1.70689 5.51697 6.63193 370 0.12 1.90986
371 18 9.51171 1.67444 4.67681 371 0.12 1.90986
372 5 2.16359 9.02927 6.7787 372 0.12 1.90986
373 32 6.19866 7.18885 7.83172 373 0.12 1.90986
374 21 6.22499 0.868113 0.856001 374 0.12 1.90986
375 11 0.34316 6.31145 4.86892 375 0.12 1.90986
376 5 5.13629 0.951206 7.19514 376 0.12 1.90986
377 4 5.70151 3.45198 0.425639 377 0.12 1.90986
378 2 9.48945 8.33777 5.11366 378 0.12 1.90986
379 13 0.959412 7.52308 2.8677 379 0.12 1.90986
380 21 8.74427 4.08153 4.73858 380 0.12 1.90986
381 17 2.84794 3.99358 6.5178 381 0.12 1.90986
382 28 9.11658 7.12688 6.78349 382 0.12 1.90986
383 18 3.45699 6.51029 2.55607 383 0.12 1.90986
384 9 3.04737 6.25894 3.88205 384 0.12 1.90986
385 5 4.2029 1.43745 8.59128 385 0.12 1.90986
386 18 5.11652 0.367889 9.54846 386 0.12 1.90986
387 31 9.51238 4.71024 1.28168 387 0.12 1.90986
388 32 5.68778 4.20527 2.81217 388 0.12 1.90986
389 11 1.87984 7.16671 3.80722 389 0.12 1.90986
390 31 9.37396 9.51268 7.70035 390 0.12 1.90986
391 5 8.39925 1.97467 5.43526 391 0.12 1.90986
392 5 1.74543 0.823816 1.99892 392 0.12 1.90986
393 17 6.96016 6.75708 0.388379 393 0.12 1.90986
394 8 2.13457 6.11504 6.91306 394 0.12 1.90986
395 25 2.41694 0.809343 4.66247 395 0.12 1.90986
396 2 4.24277 1.84796 0.489347 396 0.12 1.90986
397 2 1.2593 5.94724 2.21789 397 0.12 1.90986
398 15 2.13205 8.61724 0.779107 398 0.12 1.90986
399 11 8.09056 2.30798 2.38302 399 0.12 1.90986
400 4 0.505903 7.98191 4.34295 400 0.12 1.90986
401 32 6.24379 0.457571 7.0848 401 0.12 1.90986
402 5 5.94685 9.45256 9.62047 402 0.12 1.90986
403 7 5.38555 8.53546 9.6505 403 0.12 1.90986
404 28 7.12978 3.96354 2.79535 404 0.12 1.90986
405 6 1.59184 5.08732 6.32114 405 0.12 1.90986
406 5 2.22058 5.20324 3.95176 406 0.12 1.90986
407 23 7.4027 4.78877 8.60241 407 0.12 1.90986
408 5 2.73086 7.57094 3.74126 408 0.12 1.90986
409 7 5.26054 0.898955 6.87472 409 0.12 1.90986
410 17 3.3842 1.16308 5.73777 410 0.12 1.90986
411 13 4.89039 1.11146 6.85723 411 0.12 1.90986
412 28 6.92472 1.16694 4.90856 412 0.12 1.90986
413 4 4.70836 4.53353 0.470464 413 0.12 1.90986
414 21 2.77727 4.86278 8.66768 414 0.12 1.90986
415 13 1.05946 5.33829 7.83727 415 0.12 1.90986
416 1 6.8773 3.67753 3.94532 416 0.12 1.90986
417 5 2.12171 6.07756 0.52161 417 0.12 1.90986
418 9 2.24288 7.34538 9.16494 418 0.12 1.90986
419 4 2.41259 6.13272 7.09183 419 0.12 1.90986
420 8 3.33694 2.86287 1.19037 420 0.12 1.90986
421 5 5.63949 2.50966 8.43099 421 0.12 1.90986
422 11 7.5162 3.61001 5.97308 422 0.12 1.90986
423 28 7.44235 1.85602 4.61339 423 0.12 1.90986
424 23 9.73636 2.53963 2.10493 424 0.12 1.90986
425 11 2.48691 4.0793 9.6421 425 0.12 1.90986
426 4 8.58791 6.82352 2.17148 426 0.12 1.90986
427 21 9.27274 0.923813 5.13906 427 0.12 1.90986
428 5 6.35491 7.66302 2.23562 428 0.12 1.90986
429 11 2.3952 7.48641 6.10508 429 0.12 1.90986
430 31 4.68403 6.65848 3.01503 430 0.12 1.90986
431 27 9.61377 5.13251 6.28339 431 0.12 1.90986
432 5 6.27173 9.01789 3.29035 432 0.12 1.90986
433 9 6.70456 1.34049 4.86178 433 0.12 1.90986
434 31 2.87084 0.455385 0.644914 434 0.12 1.90986
435 34 2.31285 1.58594 8.73673 435 0.12 1.90986
436 23 5.25126 1.04359 6.43995 436 0.12 1.90986
437 11 6.14447 4.72583 2.506 437 0.12 1.90986
438 5 8.37437 2.26013 5.17659 438 0.12 1.90986
439 10 6.76831 9.07646 2.17491 439 0.12 1.90986
440 4 0.21772 8.56076 4.11017 440 0.12 1.90986
441 24 6.87593 9.6933 1.44747 441 0.12 1.90986
442 1 9.47752 8.19817 4.63973 442 0.12 1.90986
443 12 0.901164 2.73493 3.41691 443 0.12 1.90986
444 12 6.22696 7.50867 9.22369 444 0.12 1.90986
445 25 4.36252 2.36406 2.24035 445 0.12 1.90986
446 18 8.27811 7.81267 1.19979 446 0.12 1.90986
447 3 2.41822 1.0953 6.10319 447 0.12 1.90986
448 12 1.57254 3.29706 5.48899 448 0.12 1.90986
449 4 6.28614 5.00397 0.866966 449 0.12 1.90986
450 4 4.10935 4.53004 2.85875 450 0.12 1.90986
451 5 8.74054 5.73152 3.12743 451 0.12 1.90986
452 26 1.20928 1.22225 3.4461 452 0.12 1.90986
453 18 6.29338 1.43536 9.22231 453 0.12 1.90986
454 30 4.98746 0.945614 0.665263 454 0.12 1.90986
455 5 1.10757 1.07154 6.52038 455 0.12 1.90986
456 8 8.37786 8.33338 1.18009 456 0.12 1.90986
457 2 4.73252 8.47224 7.1549 457 0.12 1.90986
458 8 5.61551 9.22273 4.48973 458 0.12 1.90986
459 13 8.24168 2.48133 1.66239 459 0.12 1.90986
460 11 6.89897 4.43163 2.05564 460 0.12 1.90986
461 13 7.95978 7.73099 1.4978 461 0.12 1.90986
462 5 2.92838 0.834406 8.01942 462 0.12 1.90986
463 32 7.98069 2.39989 4.0102 463 0.12 1.90986
464 11 0.780473 2.46541 3.23244 464 0.12 1.90986
465 28 4.63097 2.86419 3.90787 465 0.12 1.90986
466 13 9.41536 6.19404 3.53577 466 0.12 1.90986
467 16 4.10478 5.10024 9.15131 467 0.12 1.90986
468 5 0.493211 4.88251 1.06104 468 0.12 1.90986
469 26 8.47152 9.81451 7.18601 469 0.12 1.90986
470 5 3.19413 9.48151 6.06614 470 0.12 1.90986
471 9 2.03671 2.88237 6.96267 471 0.12 1.90986
472 5 0.342888 5.94164 4.3271 472 0.12 1.90986
473 5 3.51111 1.67507 7.83683 473 0.12 1.90986
474 9 9.63857 5.68875 7.89299 474 0.12 1.90986
475 4 2.61725 3.57103 1.38576 475 0.12 1.90986
476 17 3.50223 6.50411 2.97079 476 0.12 1.90986
477 4 7.64022 4.70758 3.21545 477 0.12 1.90986
478 5 0.920002 8.64905 8.76871 478 0.12 1.90986
479 4 2.92919 7.35803 5.03592 479 0.12 1.90986
480 34 2.77537 8.27551 0.524795 480 0.12 1.90986
481 11 4.93598 8.35924 9.22104 481 0.12 1.90986
482 25 6.24134 3.03717 5.83334 482 0.12 1.90986
483 34 7.3527 5.1605 7.37403 483 0.12 1.90986
484 5 5.22554 4.05763 3.43323 484 0.12 1.90986
485 25 3.97474 8.71979 5.11816 485 0.12 1.90986
486 5 5.37899 7.73704 2.57487 486 0.12 1.90986
487 4 8.53794 4.97304 4.57745 487 0.12 1.90986
488 5 3.41974 2.09293 7.43387 488 0.12 1.90986
489 4 1.31606 2.6982 8.26814 489 0.12 1.90986
490 5 2.63896 0.709573 4.7584 490 0.12 1.90986
491 6 7.55841 1.03729 8.3405 491 0.12 1.90986
492 5 5.79113 6.56702 7.30977 492 0.12 1.90986
493 26 4.9854 9.62416 3.15401 493 0.12 1.90986
494 4 3.84744 5.06313 9.08474 494 0.12 1.90986
495 5 1.42206 7.64303 1.76467 495 0.12 1.90986
496 18 5.49339 3.29673 9.25618 496 0.12 1.90986
497 27 3.38257 6.29908 4.38827 497 0.12 1.90986
498 11 3.68185 2.30096 7.65541 498 0.12 1.90986
499 11 1.21268 8.77758 8.04487 499 0.12 1.90986
500 25 4.54656 1.90081 3.3034 500 0.12 1.90986
501 9 5.69565 5.86742 8.63101 501 0.12 1.90986
502 19 6.9106 4.08831 1.85733 502 0.12 1.90986
503 5 8.03639 6.6258 7.32859 503 0.12 1.90986
504 12 2.1955 6.09609 2.7188 504 0.12 1.90986
505 31 5.74058 8.46466 1.14159 505 0.12 1.90986
506 6 1.9286 1.92803 1.98432 506 0.12 1.90986
507 24 7.47303 8.6816 0.779196 507 0.12 1.90986
508 21 0.246498 2.64502 1.08053 508 0.12 1.90986
509 6 6.93953 8.10231 3.24279 509 0.12 1.90986
510 31 6.453 2.4273 3.30033 510 0.12 1.90986
511 31 3.59933 0.290768 6.5883 511 0.12 1.90986
512 4 2.48344 2.96391 6.38582 512 0.12 1.90986
513 30 9.64336 7.20361 6.22054 513 0.12 1.90986
514 5 6.53647 7.50001 7.84692 514 0.12 1.90986
515 4 3.02958 7.0086 1.72671 515 0.12 1.90986
516 5 4.15351 6.2788 4.57096 516 0.12 1.90986
517 33 9.32451 2.4238 4.0527 517 0.12 1.90986
518 17 8.7392 6.65413 8.19152 518 0.12 1.90986
519 24 1.67102 5.16825 8.02155 519 0.12 1.90986
520 31 1.07004 4.0445 2.81743 520 0.12 1.90986
521 30 2.83859 8.36281 4.55408 521 0.12 1.90986
522 33 1.69541 7.61281 1.12437 522 0.12 1.90986
523 5 8.66045 6.9809 3.08776 523 0.12 1.90986
524 13 2.39929 0.594344 6.27904 524 0.12 1.90986
525 4 4.08916 4.82726 4.23474 525 0.12 1.90986
526 4 1.18841 2.13845 1.4277 526 0.12 1.90986
527 16 2.02352 8.93521 8.58759 527 0.12 1.90986
528 4 2.15529 1.15421 0.44842 528 0.12 1.90986
529 6 7.28185 8.12417 4.97331 529 0.12 1.90986
530 28 6.1306 8.21747 2.29432 530 0.12 1.90986
531 30 2.25452 9.6142 1.48665 531 0.12 1.90986
532 5 6.86237 7.09835 0.379648 532 0.12 1.90986
533 4 3.52337 0.647728 4.13691 533 0.12 1.90986
534 9 0.588723 4.18397 3.83551 534 0.12 1.90986
535 6 3.63733 6.35688 8.25043 535 0.12 1.90986
536 4 5.14007 5.07815 3.69412 536 0.12 1.90986
537 5 1.3939 4.55207 7.94794 537 0.12 1.90986
538 32 8.42213 2.25928 5.49941 538 0.12 1.90986
539 8 5.27451 8.50142 6.54902 539 0.12 1.90986
540 18 7.75488 8.5798 2.45552 540 0.12 1.90986
541 18 9.6941 7.26139 8.22162 541 0.12 1.90986
542 4 3.44196 1.98164 9.06867 542 0.12 1.90986
543 31 1.07012 1.0704 1.63608 543 0.12 1.90986
544 4 2.18909 5.39124 2.4814 544 0.12 1.90986
545 27 4.11465 1.65158 7.70957 545 0.12 1.90986
546 11 5.35529 0.398872 7.20034 546 0.12 1.90986
547 4 2.00237 7.2527 2.76158 547 0.12 1.90986
548 20 6.34592 0.606014 2.03679 548 0.12 1.90986
549 13 8.91011 3.69189 5.09562 549 0.12 1.90986
550 8 6.84118 4.56004 8.26934 550 0.12 1.90986
551 5 5.37224 3.23016 3.93979 551 0.12 1.90986
552 5 3.71773 5.25871 5.28891 552 0.12 1.90986
553 17 0.953035 4.35938 5.55419 553 0.12 1.90986
554 13 9.48167 9.40632 2.29714 554 0.12 1.90986
555 31 6.18214 0.37955 0.410551 555 0.12 1.90986
556 2 3.06291 7.5847 4.70449 556 0.12 1.90986
557 13 6.32803 0.312073 0.315902 557 0.12 1.90986
558 13 3.12244 9.57547 7.51123 558 0.12 1.90986
559 33 4.61943 3.68646 9.20992 559 0.12 1.90986
560 11 0.790935 8.55086 9.06282 560 0.12 1.90986
561 3 6.65165 9.76956 9.47976 561 0.12 1.90986
562 17 4.76424 8.03168 3.16579 562 0.12 1.90986
563 34 2.96929 2.8592 7.51296 563 0.12 1.90986
564 11 4.27268 7.72618 2.85865 564 0.12 1.90986
565 19 9.35616 9.42327 7.90281 565 0.12 1.90986
566 4 7.3922 9.79732 2.53516 566 0.12 1.90986
567 5 9.42892 1.33876 2.77173 567 0.12 1.90986
568 14 5.5711 2.63023 6.42492 568 0.12 1.90986
569 18 8.39919 2.49432 8.27606 569 0.12 1.90986
570 24 5.27072 2.47644 2.39445 570 0.12 1.90986
571 28 0.798814 1.67467 2.74189 571 0.12 1.90986
572 10 8.69448 0.425283 9.10328 572 0.12 1.90986
573 2 1.1173 5.5153 6.65941 573 0.12 1.90986
574 5 5.21058 1.15518 3.34158 574 0.12 1.90986
575 6 4.53498 9.01439 9.40815 575 0.12 1.90986
576 8 7.64187 2.19716 7.17191 576 0.12 1.90986
577 14 7.5378 7.52911 4.68531 577 0.12 1.90986
578 5 9.35762 8.2227 4.21498 578 0.12 1.90986
579 20 7.11526 4.2418 2.50116 579 0.12 1.90986
580 11 2.52599 6.31738 1.70916 580 0.12 1.90986
581 3 1.91055 5.03508 1.20335 581 0.12 1.90986
582 12 3.47425 6.58029 6.60766 582 0.12 1.90986
583 18 3.67576 9.45985 0.352608 583 0.12 1.90986
584 32 8.45669 2.30365 3.4742 584 0.12 1.90986
585 17 0.732115 3.19687 6.54161 585 0.12 1.90986
586 26 8.00472 2.97696 7.23688 586 0.12 1.90986
587 31 1.28718 7.98043 2.34824 587 0.12 1.90986
588 23 8.7999 8.27288 5.75366 588 0.12 1.90986
589 2 5.67214 4.11116 7.07771 589 0.12 1.90986
590 21 5.8343 3.68777 8.52455 590 0.12 1.90986
591 1 5.82291 5.65217 9.68147 591 0.12 1.90986
592 29 7.51501 5.10751 3.37624 592 0.12 1.90986
593 28 7.88777 3.54545 2.28173 593 0.12 1.90986
594 31 5.93278 7.64945 5.00406 594 0.12 1.90986
595 5 8.35391 3.56876 8.47403 595 0.12 1.90986
596 31 4.41443 1.61416 8.53918 596 0.12 1.90986
597 34 3.93179 1.18893 1.69419 597 0.12 1.90986
598 16 2.77568 2.92826 1.50766 598 0.12 1.90986
599 11 6.67916 5.19266 6.50119 599 0.12 1.90986
600 5 5.1094 8.27051 7.37851 600 0.12 1.90986
601 4 6.19654 7.84504 3.05552 601 0.12 1.90986
602 17 9.32549 5.53915 2.32017 602 0.12 1.90986
603 10 1.93512 6.98377 1.91168 603 0.12 1.90986
604 11 7.25929 8.49164 3.62764 604 0.12 1.90986
605 15 8.67326 8.21387 6.41682 605 0.12 1.90986
606 5 6.44681 7.99892 4.98302 606 0.12 1.90986
607 28 5.12366 5.55899 4.62691 607 0.12 1.90986
608 26 6.5848 0.283265 7.26364 608 0.12 1.90986
609 12 8.04443 0.81346 1.95007 609 0.12 1.90986
610 7 2.05836 4.72605 2.80552 610 0.12 1.90986
611 17 6.94767 4.20256 0.607635 611 0.12 1.90986
612 32 1.06421 8.76195 6.15807 612 0.12 1.90986
613 9 1.30012 9.52211 0.408042 613 0.12 1.90986
614 5 3.50871 4.14957 0.211021 614 0.12 1.90986
615 5 7.30358 9.79066 1.86619 615 0.12 1.90986
616 27 3.5324 9.06216 6.02698 616 0.12 1.90986
617 5 8.72978 8.73413 7.10229 617 0.12 1.90986
618 29 4.44172 8.64046 2.67637 618 0.12 1.90986
619 29 5.90511 6.21555 9.65283 619 0.12 1.90986
620 25 3.90892 9.57013 9.40375 620 0.12 1.90986
621 9 0.548748 7.65782 9.04385 621 0.12 1.90986
622 26 8.89053 7.54815 5.56789 622 0.12 1.90986
623 11 0.278695 3.4412 1.43851 623 0.12 1.90986
624 28 2.04802 9.77399 1.15073 624 0.12 1.90986
625 6 1.93992 8.43971 6.63688 625 0.12 1.90986