#Header
26724 atoms
1680 bonds
1638 angles
36 atom types
1 bond types
1 angle types
0 40 xlo xhi
0 40 ylo yhi
-1 46.0 zlo zhi

Masses

1 1000
2 1000
3 0.001728
4 0.001728
5 0.001728
6 0.001728
7 0.001728
8 0.001728
9 0.001728
10 0.001728
11 0.001728
12 0.001728
13 0.001728
14 0.001728
15 0.001728
16 0.001728
17 0.001728
18 0.001728
19 0.001728
20 0.001728
21 0.001728
22 0.001728
23 0.001728
24 0.001728
25 0.001728
26 0.001728
27 0.001728
28 0.001728
29 0.001728
30 0.001728
31 0.001728
32 0.001728
33 0.001728
34 0.001728
35 0.001728
36 0.001728

Atoms # full

1 1 38.0996 12.3807 0 1 4 29.8416
2 1 25.6628 20.0522 0 2 4 29.8416
3 1 8.60398 27.9307 0 3 4 29.8416
4 1 6.29053 37.3806 0 4 4 29.8416
5 1 38.9806 5.92998 0 5 4 29.8416
6 1 5.66278 14.7209 0 6 4 29.8416
7 1 17.0438 38.8257 0 7 4 29.8416
8 1 27.4766 3.6903 0 8 4 29.8416
9 1 21.6361 32.6116 0 9 4 29.8416
10 1 31.4926 33.7737 0 10 4 29.8416
11 1 0.13374 30.76 0 11 4 29.8416
12 1 0.808703 21.6533 0 12 4 29.8416
13 1 38.7726 18.5709 0 13 4 29.8416
14 1 13.204 23.0493 0 14 4 29.8416
15 1 38.587 31.4569 0 15 4 29.8416
16 1 32.6243 24.3898 0 16 4 29.8416
17 1 35.0565 0.773315 0 17 4 29.8416
18 1 24.5992 14.5048 0 18 4 29.8416
19 1 15.3341 33.4417 0 19 4 29.8416
20 1 25.7979 26.7237 0 20 4 29.8416
21 1 0.88646 1.66106 0 21 4 29.8416
22 1 31.7672 16.4071 0 22 4 29.8416
23 1 2.77008 8.3541 0 23 4 29.8416
24 1 16.9867 10.2373 0 24 4 29.8416
25 1 9.13417 8.15221 0 25 4 29.8416
26 1 24.3489 38.8763 0 26 4 29.8416
27 1 7.19179 2.55751 0 27 4 29.8416
28 1 19.3633 21.3384 0 28 4 29.8416
29 1 13.2023 3.28322 0 29 4 29.8416
30 1 32.2921 9.86694 0 30 4 29.8416
31 1 0.103105 13.9454 0 31 4 29.8416
32 1 11.4621 15.5019 0 32 4 29.8416
33 1 24.403 8.5841 0 33 4 29.8416
34 1 7.49267 21.3593 0 34 4 29.8416
35 1 39.8092 37.9573 0 35 4 29.8416
36 1 32.0692 39.5158 0 36 4 29.8416
37 1 20.243 27.0991 0 37 4 29.8416
38 1 21.5447 1.70632 0 38 4 29.8416
39 1 38.7958 25.1196 0 39 4 29.8416
40 1 0.800534 39.3261 0 40 4 29.8416
41 1 17.8011 15.8126 0 41 4 29.8416
42 1 11.5242 39.4509 0 42 4 29.8416
43 2 38.0996 12.3807 1 1 4 29.8416
44 2 38.0996 12.3807 2 1 4 29.8416
45 2 38.0996 12.3807 3 1 4 29.8416
46 2 38.0996 12.3807 4 1 4 29.8416
47 2 38.0996 12.3807 5 1 4 29.8416
48 2 38.0996 12.3807 6 1 4 29.8416
49 2 38.0996 12.3807 7 1 4 29.8416
50 2 38.0996 12.3807 8 1 4 29.8416
51 2 38.0996 12.3807 9 1 4 29.8416
52 2 38.0996 12.3807 10 1 4 29.8416
53 2 38.0996 12.3807 11 1 4 29.8416
54 2 38.0996 12.3807 12 1 4 29.8416
55 2 38.0996 12.3807 13 1 4 29.8416
56 2 38.0996 12.3807 14 1 4 29.8416
57 2 38.0996 12.3807 15 1 4 29.8416
58 2 38.0996 12.3807 16 1 4 29.8416
59 2 38.0996 12.3807 17 1 4 29.8416
60 2 38.0996 12.3807 18 1 4 29.8416
61 2 38.0996 12.3807 19 1 4 29.8416
62 2 38.0996 12.3807 20 1 4 29.8416
63 2 38.0996 12.3807 21 1 4 29.8416
64 2 38.0996 12.3807 22 1 4 29.8416
65 2 38.0996 12.3807 23 1 4 29.8416
66 2 38.0996 12.3807 24 1 4 29.8416
67 2 38.0996 12.3807 25 1 4 29.8416
68 2 38.0996 12.3807 26 1 4 29.8416
69 2 38.0996 12.3807 27 1 4 29.8416
70 2 38.0996 12.3807 28 1 4 29.8416
71 2 38.0996 12.3807 29 1 4 29.8416
72 2 38.0996 12.3807 30 1 4 29.8416
73 2 38.0996 12.3807 31 1 4 29.8416
74 2 38.0996 12.3807 32 1 4 29.8416
75 2 38.0996 12.3807 33 1 4 29.8416
76 2 38.0996 12.3807 34 1 4 29.8416
77 2 38.0996 12.3807 35 1 4 29.8416
78 2 38.0996 12.3807 36 1 4 29.8416
79 2 38.0996 12.3807 37 1 4 29.8416
80 2 38.0996 12.3807 38 1 4 29.8416
81 2 38.0996 12.3807 39 1 4 29.8416
82 2 38.0996 12.3807 40 1 4 29.8416
83 2 25.6628 20.0522 1 2 4 29.8416
84 2 25.6628 20.0522 2 2 4 29.8416
85 2 25.6628 20.0522 3 2 4 29.8416
86 2 25.6628 20.0522 4 2 4 29.8416
87 2 25.6628 20.0522 5 2 4 29.8416
88 2 25.6628 20.0522 6 2 4 29.8416
89 2 25.6628 20.0522 7 2 4 29.8416
90 2 25.6628 20.0522 8 2 4 29.8416
91 2 25.6628 20.0522 9 2 4 29.8416
92 2 25.6628 20.0522 10 2 4 29.8416
93 2 25.6628 20.0522 11 2 4 29.8416
94 2 25.6628 20.0522 12 2 4 29.8416
95 2 25.6628 20.0522 13 2 4 29.8416
96 2 25.6628 20.0522 14 2 4 29.8416
97 2 25.6628 20.0522 15 2 4 29.8416
98 2 25.6628 20.0522 16 2 4 29.8416
99 2 25.6628 20.0522 17 2 4 29.8416
100 2 25.6628 20.0522 18 2 4 29.8416
101 2 25.6628 20.0522 19 2 4 29.8416
102 2 25.6628 20.0522 20 2 4 29.8416
103 2 25.6628 20.0522 21 2 4 29.8416
104 2 25.6628 20.0522 22 2 4 29.8416
105 2 25.6628 20.0522 23 2 4 29.8416
106 2 25.6628 20.0522 24 2 4 29.8416
107 2 25.6628 20.0522 25 2 4 29.8416
108 2 25.6628 20.0522 26 2 4 29.8416
109 2 25.6628 20.0522 27 2 4 29.8416
110 2 25.6628 20.0522 28 2 4 29.8416
111 2 25.6628 20.0522 29 2 4 29.8416
112 2 25.6628 20.0522 30 2 4 29.8416
113 2 25.6628 20.0522 31 2 4 29.8416
114 2 25.6628 20.0522 32 2 4 29.8416
115 2 25.6628 20.0522 33 2 4 29.8416
116 2 25.6628 20.0522 34 2 4 29.8416
117 2 25.6628 20.0522 35 2 4 29.8416
118 2 25.6628 20.0522 36 2 4 29.8416
119 2 25.6628 20.0522 37 2 4 29.8416
120 2 25.6628 20.0522 38 2 4 29.8416
121 2 25.6628 20.0522 39 2 4 29.8416
122 2 25.6628 20.0522 40 2 4 29.8416
123 2 8.60398 27.9307 1 3 4 29.8416
124 2 8.60398 27.9307 2 3 4 29.8416
125 2 8.60398 27.9307 3 3 4 29.8416
126 2 8.60398 27.9307 4 3 4 29.8416
127 2 8.60398 27.9307 5 3 4 29.8416
128 2 8.60398 27.9307 6 3 4 29.8416
129 2 8.60398 27.9307 7 3 4 29.8416
130 2 8.60398 27.9307 8 3 4 29.8416
131 2 8.60398 27.9307 9 3 4 29.8416
132 2 8.60398 27.9307 10 3 4 29.8416
133 2 8.60398 27.9307 11 3 4 29.8416
134 2 8.60398 27.9307 12 3 4 29.8416
135 2 8.60398 27.9307 13 3 4 29.8416
136 2 8.60398 27.9307 14 3 4 29.8416
137 2 8.60398 27.9307 15 3 4 29.8416
138 2 8.60398 27.9307 16 3 4 29.8416
139 2 8.60398 27.9307 17 3 4 29.8416
140 2 8.60398 27.9307 18 3 4 29.8416
141 2 8.60398 27.9307 19 3 4 29.8416
142 2 8.60398 27.9307 20 3 4 29.8416
143 2 8.60398 27.9307 21 3 4 29.8416
144 2 8.60398 27.9307 22 3 4 29.8416
145 2 8.60398 27.9307 23 3 4 29.8416
146 2 8.60398 27.9307 24 3 4 29.8416
147 2 8.60398 27.9307 25 3 4 29.8416
148 2 8.60398 27.9307 26 3 4 29.8416
149 2 8.60398 27.9307 27 3 4 29.8416
150 2 8.60398 27.9307 28 3 4 29.8416
151 2 8.60398 27.9307 29 3 4 29.8416
152 2 8.60398 27.9307 30 3 4 29.8416
153 2 8.60398 27.9307 31 3 4 29.8416
154 2 8.60398 27.9307 32 3 4 29.8416
155 2 8.60398 27.9307 33 3 4 29.8416
156 2 8.60398 27.9307 34 3 4 29.8416
157 2 8.60398 27.9307 35 3 4 29.8416
158 2 8.60398 27.9307 36 3 4 29.8416
159 2 8.60398 27.9307 37 3 4 29.8416
160 2 8.60398 27.9307 38 3 4 29.8416
161 2 8.60398 27.9307 39 3 4 29.8416
162 2 8.60398 27.9307 40 3 4 29.8416
163 2 6.29053 37.3806 1 4 4 29.8416
164 2 6.29053 37.3806 2 4 4 29.8416
165 2 6.29053 37.3806 3 4 4 29.8416
166 2 6.29053 37.3806 4 4 4 29.8416
167 2 6.29053 37.3806 5 4 4 29.8416
168 2 6.29053 37.3806 6 4 4 29.8416
169 2 6.29053 37.3806 7 4 4 29.8416
170 2 6.29053 37.3806 8 4 4 29.8416
171 2 6.29053 37.3806 9 4 4 29.8416
172 2 6.29053 37.3806 10 4 4 29.8416
173 2 6.29053 37.3806 11 4 4 29.8416
174 2 6.29053 37.3806 12 4 4 29.8416
175 2 6.29053 37.3806 13 4 4 29.8416
176 2 6.29053 37.3806 14 4 4 29.8416
177 2 6.29053 37.3806 15 4 4 29.8416
178 2 6.29053 37.3806 16 4 4 29.8416
179 2 6.29053 37.3806 17 4 4 29.8416
180 2 6.29053 37.3806 18 4 4 29.8416
181 2 6.29053 37.3806 19 4 4 29.8416
182 2 6.29053 37.3806 20 4 4 29.8416
183 2 6.29053 37.3806 21 4 4 29.8416
184 2 6.29053 37.3806 22 4 4 29.8416
185 2 6.29053 37.3806 23 4 4 29.8416
186 2 6.29053 37.3806 24 4 4 29.8416
187 2 6.29053 37.3806 25 4 4 29.8416
188 2 6.29053 37.3806 26 4 4 29.8416
189 2 6.29053 37.3806 27 4 4 29.8416
190 2 6.29053 37.3806 28 4 4 29.8416
191 2 6.29053 37.3806 29 4 4 29.8416
192 2 6.29053 37.3806 30 4 4 29.8416
193 2 6.29053 37.3806 31 4 4 29.8416
194 2 6.29053 37.3806 32 4 4 29.8416
195 2 6.29053 37.3806 33 4 4 29.8416
196 2 6.29053 37.3806 34 4 4 29.8416
197 2 6.29053 37.3806 35 4 4 29.8416
198 2 6.29053 37.3806 36 4 4 29.8416
199 2 6.29053 37.3806 37 4 4 29.8416
200 2 6.29053 37.3806 38 4 4 29.8416
201 2 6.29053 37.3806 39 4 4 29.8416
202 2 6.29053 37.3806 40 4 4 29.8416
203 2 38.9806 5.92998 1 5 4 29.8416
204 2 38.9806 5.92998 2 5 4 29.8416
205 2 38.9806 5.92998 3 5 4 29.8416
206 2 38.9806 5.92998 4 5 4 29.8416
207 2 38.9806 5.92998 5 5 4 29.8416
208 2 38.9806 5.92998 6 5 4 29.8416
209 2 38.9806 5.92998 7 5 4 29.8416
210 2 38.9806 5.92998 8 5 4 29.8416
211 2 38.9806 5.92998 9 5 4 29.8416
212 2 38.9806 5.92998 10 5 4 29.8416
213 2 38.9806 5.92998 11 5 4 29.8416
214 2 38.9806 5.92998 12 5 4 29.8416
215 2 38.9806 5.92998 13 5 4 29.8416
216 2 38.9806 5.92998 14 5 4 29.8416
217 2 38.9806 5.92998 15 5 4 29.8416
218 2 38.9806 5.92998 16 5 4 29.8416
219 2 38.9806 5.92998 17 5 4 29.8416
220 2 38.9806 5.92998 18 5 4 29.8416
221 2 38.9806 5.92998 19 5 4 29.8416
222 2 38.9806 5.92998 20 5 4 29.8416
223 2 38.9806 5.92998 21 5 4 29.8416
224 2 38.9806 5.92998 22 5 4 29.8416
225 2 38.9806 5.92998 23 5 4 29.8416
226 2 38.9806 5.92998 24 5 4 29.8416
227 2 38.9806 5.92998 25 5 4 29.8416
228 2 38.9806 5.92998 26 5 4 29.8416
229 2 38.9806 5.92998 27 5 4 29.8416
230 2 38.9806 5.92998 28 5 4 29.8416
231 2 38.9806 5.92998 29 5 4 29.8416
232 2 38.9806 5.92998 30 5 4 29.8416
233 2 38.9806 5.92998 31 5 4 29.8416
234 2 38.9806 5.92998 32 5 4 29.8416
235 2 38.9806 5.92998 33 5 4 29.8416
236 2 38.9806 5.92998 34 5 4 29.8416
237 2 38.9806 5.92998 35 5 4 29.8416
238 2 38.9806 5.92998 36 5 4 29.8416
239 2 38.9806 5.92998 37 5 4 29.8416
240 2 38.9806 5.92998 38 5 4 29.8416
241 2 38.9806 5.92998 39 5 4 29.8416
242 2 38.9806 5.92998 40 5 4 29.8416
243 2 5.66278 14.7209 1 6 4 29.8416
244 2 5.66278 14.7209 2 6 4 29.8416
245 2 5.66278 14.7209 3 6 4 29.8416
246 2 5.66278 14.7209 4 6 4 29.8416
247 2 5.66278 14.7209 5 6 4 29.8416
248 2 5.66278 14.7209 6 6 4 29.8416
249 2 5.66278 14.7209 7 6 4 29.8416
250 2 5.66278 14.7209 8 6 4 29.8416
251 2 5.66278 14.7209 9 6 4 29.8416
252 2 5.66278 14.7209 10 6 4 29.8416
253 2 5.66278 14.7209 11 6 4 29.8416
254 2 5.66278 14.7209 12 6 4 29.8416
255 2 5.66278 14.7209 13 6 4 29.8416
256 2 5.66278 14.7209 14 6 4 29.8416
257 2 5.66278 14.7209 15 6 4 29.8416
258 2 5.66278 14.7209 16 6 4 29.8416
259 2 5.66278 14.7209 17 6 4 29.8416
260 2 5.66278 14.7209 18 6 4 29.8416
261 2 5.66278 14.7209 19 6 4 29.8416
262 2 5.66278 14.7209 20 6 4 29.8416
263 2 5.66278 14.7209 21 6 4 29.8416
264 2 5.66278 14.7209 22 6 4 29.8416
265 2 5.66278 14.7209 23 6 4 29.8416
266 2 5.66278 14.7209 24 6 4 29.8416
267 2 5.66278 14.7209 25 6 4 29.8416
268 2 5.66278 14.7209 26 6 4 29.8416
269 2 5.66278 14.7209 27 6 4 29.8416
270 2 5.66278 14.7209 28 6 4 29.8416
271 2 5.66278 14.7209 29 6 4 29.8416
272 2 5.66278 14.7209 30 6 4 29.8416
273 2 5.66278 14.7209 31 6 4 29.8416
274 2 5.66278 14.7209 32 6 4 29.8416
275 2 5.66278 14.7209 33 6 4 29.8416
276 2 5.66278 14.7209 34 6 4 29.8416
277 2 5.66278 14.7209 35 6 4 29.8416
278 2 5.66278 14.7209 36 6 4 29.8416
279 2 5.66278 14.7209 37 6 4 29.8416
280 2 5.66278 14.7209 38 6 4 29.8416
281 2 5.66278 14.7209 39 6 4 29.8416
282 2 5.66278 14.7209 40 6 4 29.8416
283 2 17.0438 38.8257 1 7 4 29.8416
284 2 17.0438 38.8257 2 7 4 29.8416
285 2 17.0438 38.8257 3 7 4 29.8416
286 2 17.0438 38.8257 4 7 4 29.8416
287 2 17.0438 38.8257 5 7 4 29.8416
288 2 17.0438 38.8257 6 7 4 29.8416
289 2 17.0438 38.8257 7 7 4 29.8416
290 2 17.0438 38.8257 8 7 4 29.8416
291 2 17.0438 38.8257 9 7 4 29.8416
292 2 17.0438 38.8257 10 7 4 29.8416
293 2 17.0438 38.8257 11 7 4 29.8416
294 2 17.0438 38.8257 12 7 4 29.8416
295 2 17.0438 38.8257 13 7 4 29.8416
296 2 17.0438 38.8257 14 7 4 29.8416
297 2 17.0438 38.8257 15 7 4 29.8416
298 2 17.0438 38.8257 16 7 4 29.8416
299 2 17.0438 38.8257 17 7 4 29.8416
300 2 17.0438 38.8257 18 7 4 29.8416
301 2 17.0438 38.8257 19 7 4 29.8416
302 2 17.0438 38.8257 20 7 4 29.8416
303 2 17.0438 38.8257 21 7 4 29.8416
304 2 17.0438 38.8257 22 7 4 29.8416
305 2 17.0438 38.8257 23 7 4 29.8416
306 2 17.0438 38.8257 24 7 4 29.8416
307 2 17.0438 38.8257 25 7 4 29.8416
308 2 17.0438 38.8257 26 7 4 29.8416
309 2 17.0438 38.8257 27 7 4 29.8416
310 2 17.0438 38.8257 28 7 4 29.8416
311 2 17.0438 38.8257 29 7 4 29.8416
312 2 17.0438 38.8257 30 7 4 29.8416
313 2 17.0438 38.8257 31 7 4 29.8416
314 2 17.0438 38.8257 32 7 4 29.8416
315 2 17.0438 38.8257 33 7 4 29.8416
316 2 17.0438 38.8257 34 7 4 29.8416
317 2 17.0438 38.8257 35 7 4 29.8416
318 2 17.0438 38.8257 36 7 4 29.8416
319 2 17.0438 38.8257 37 7 4 29.8416
320 2 17.0438 38.8257 38 7 4 29.8416
321 2 17.0438 38.8257 39 7 4 29.8416
322 2 17.0438 38.8257 40 7 4 29.8416
323 2 27.4766 3.6903 1 8 4 29.8416
324 2 27.4766 3.6903 2 8 4 29.8416
325 2 27.4766 3.6903 3 8 4 29.8416
326 2 27.4766 3.6903 4 8 4 29.8416
327 2 27.4766 3.6903 5 8 4 29.8416
328 2 27.4766 3.6903 6 8 4 29.8416
329 2 27.4766 3.6903 7 8 4 29.8416
330 2 27.4766 3.6903 8 8 4 29.8416
331 2 27.4766 3.6903 9 8 4 29.8416
332 2 27.4766 3.6903 10 8 4 29.8416
333 2 27.4766 3.6903 11 8 4 29.8416
334 2 27.4766 3.6903 12 8 4 29.8416
335 2 27.4766 3.6903 13 8 4 29.8416
336 2 27.4766 3.6903 14 8 4 29.8416
337 2 27.4766 3.6903 15 8 4 29.8416
338 2 27.4766 3.6903 16 8 4 29.8416
339 2 27.4766 3.6903 17 8 4 29.8416
340 2 27.4766 3.6903 18 8 4 29.8416
341 2 27.4766 3.6903 19 8 4 29.8416
342 2 27.4766 3.6903 20 8 4 29.8416
343 2 27.4766 3.6903 21 8 4 29.8416
344 2 27.4766 3.6903 22 8 4 29.8416
345 2 27.4766 3.6903 23 8 4 29.8416
346 2 27.4766 3.6903 24 8 4 29.8416
347 2 27.4766 3.6903 25 8 4 29.8416
348 2 27.4766 3.6903 26 8 4 29.8416
349 2 27.4766 3.6903 27 8 4 29.8416
350 2 27.4766 3.6903 28 8 4 29.8416
351 2 27.4766 3.6903 29 8 4 29.8416
352 2 27.4766 3.6903 30 8 4 29.8416
353 2 27.4766 3.6903 31 8 4 29.8416
354 2 27.4766 3.6903 32 8 4 29.8416
355 2 27.4766 3.6903 33 8 4 29.8416
356 2 27.4766 3.6903 34 8 4 29.8416
357 2 27.4766 3.6903 35 8 4 29.8416
358 2 27.4766 3.6903 36 8 4 29.8416
359 2 27.4766 3.6903 37 8 4 29.8416
360 2 27.4766 3.6903 38 8 4 29.8416
361 2 27.4766 3.6903 39 8 4 29.8416
362 2 27.4766 3.6903 40 8 4 29.8416
363 2 21.6361 32.6116 1 9 4 29.8416
364 2 21.6361 32.6116 2 9 4 29.8416
365 2 21.6361 32.6116 3 9 4 29.8416
366 2 21.6361 32.6116 4 9 4 29.8416
367 2 21.6361 32.6116 5 9 4 29.8416
368 2 21.6361 32.6116 6 9 4 29.8416
369 2 21.6361 32.6116 7 9 4 29.8416
370 2 21.6361 32.6116 8 9 4 29.8416
371 2 21.6361 32.6116 9 9 4 29.8416
372 2 21.6361 32.6116 10 9 4 29.8416
373 2 21.6361 32.6116 11 9 4 29.8416
374 2 21.6361 32.6116 12 9 4 29.8416
375 2 21.6361 32.6116 13 9 4 29.8416
376 2 21.6361 32.6116 14 9 4 29.8416
377 2 21.6361 32.6116 15 9 4 29.8416
378 2 21.6361 32.6116 16 9 4 29.8416
379 2 21.6361 32.6116 17 9 4 29.8416
380 2 21.6361 32.6116 18 9 4 29.8416
381 2 21.6361 32.6116 19 9 4 29.8416
382 2 21.6361 32.6116 20 9 4 29.8416
383 2 21.6361 32.6116 21 9 4 29.8416
384 2 21.6361 32.6116 22 9 4 29.8416
385 2 21.6361 32.6116 23 9 4 29.8416
386 2 21.6361 32.6116 24 9 4 29.8416
387 2 21.6361 32.6116 25 9 4 29.8416
388 2 21.6361 32.6116 26 9 4 29.8416
389 2 21.6361 32.6116 27 9 4 29.8416
390 2 21.6361 32.6116 28 9 4 29.8416
391 2 21.6361 32.6116 29 9 4 29.8416
392 2 21.6361 32.6116 30 9 4 29.8416
393 2 21.6361 32.6116 31 9 4 29.8416
394 2 21.6361 32.6116 32 9 4 29.8416
395 2 21.6361 32.6116 33 9 4 29.8416
396 2 21.6361 32.6116 34 9 4 29.8416
397 2 21.6361 32.6116 35 9 4 29.8416
398 2 21.6361 32.6116 36 9 4 29.8416
399 2 21.6361 32.6116 37 9 4 29.8416
400 2 21.6361 32.6116 38 9 4 29.8416
401 2 21.6361 32.6116 39 9 4 29.8416
402 2 21.6361 32.6116 40 9 4 29.8416
403 2 31.4926 33.7737 1 10 4 29.8416
404 2 31.4926 33.7737 2 10 4 29.8416
405 2 31.4926 33.7737 3 10 4 29.8416
406 2 31.4926 33.7737 4 10 4 29.8416
407 2 31.4926 33.7737 5 10 4 29.8416
408 2 31.4926 33.7737 6 10 4 29.8416
409 2 31.4926 33.7737 7 10 4 29.8416
410 2 31.4926 33.7737 8 10 4 29.8416
411 2 31.4926 33.7737 9 10 4 29.8416
412 2 31.4926 33.7737 10 10 4 29.8416
413 2 31.4926 33.7737 11 10 4 29.8416
414 2 31.4926 33.7737 12 10 4 29.8416
415 2 31.4926 33.7737 13 10 4 29.8416
416 2 31.4926 33.7737 14 10 4 29.8416
417 2 31.4926 33.7737 15 10 4 29.8416
418 2 31.4926 33.7737 16 10 4 29.8416
419 2 31.4926 33.7737 17 10 4 29.8416
420 2 31.4926 33.7737 18 10 4 29.8416
421 2 31.4926 33.7737 19 10 4 29.8416
422 2 31.4926 33.7737 20 10 4 29.8416
423 2 31.4926 33.7737 21 10 4 29.8416
424 2 31.4926 33.7737 22 10 4 29.8416
425 2 31.4926 33.7737 23 10 4 29.8416
426 2 31.4926 33.7737 24 10 4 29.8416
427 2 31.4926 33.7737 25 10 4 29.8416
428 2 31.4926 33.7737 26 10 4 29.8416
429 2 31.4926 33.7737 27 10 4 29.8416
430 2 31.4926 33.7737 28 10 4 29.8416
431 2 31.4926 33.7737 29 10 4 29.8416
432 2 31.4926 33.7737 30 10 4 29.8416
433 2 31.4926 33.7737 31 10 4 29.8416
434 2 31.4926 33.7737 32 10 4 29.8416
435 2 31.4926 33.7737 33 10 4 29.8416
436 2 31.4926 33.7737 34 10 4 29.8416
437 2 31.4926 33.7737 35 10 4 29.8416
438 2 31.4926 33.7737 36 10 4 29.8416
439 2 31.4926 33.7737 37 10 4 29.8416
440 2 31.4926 33.7737 38 10 4 29.8416
441 2 31.4926 33.7737 39 10 4 29.8416
442 2 31.4926 33.7737 40 10 4 29.8416
443 2 0.13374 30.76 1 11 4 29.8416
444 2 0.13374 30.76 2 11 4 29.8416
445 2 0.13374 30.76 3 11 4 29.8416
446 2 0.13374 30.76 4 11 4 29.8416
447 2 0.13374 30.76 5 11 4 29.8416
448 2 0.13374 30.76 6 11 4 29.8416
449 2 0.13374 30.76 7 11 4 29.8416
450 2 0.13374 30.76 8 11 4 29.8416
451 2 0.13374 30.76 9 11 4 29.8416
452 2 0.13374 30.76 10 11 4 29.8416
453 2 0.13374 30.76 11 11 4 29.8416
454 2 0.13374 30.76 12 11 4 29.8416
455 2 0.13374 30.76 13 11 4 29.8416
456 2 0.13374 30.76 14 11 4 29.8416
457 2 0.13374 30.76 15 11 4 29.8416
458 2 0.13374 30.76 16 11 4 29.8416
459 2 0.13374 30.76 17 11 4 29.8416
460 2 0.13374 30.76 18 11 4 29.8416
461 2 0.13374 30.76 19 11 4 29.8416
462 2 0.13374 30.76 20 11 4 29.8416
463 2 0.13374 30.76 21 11 4 29.8416
464 2 0.13374 30.76 22 11 4 29.8416
465 2 0.13374 30.76 23 11 4 29.8416
466 2 0.13374 30.76 24 11 4 29.8416
467 2 0.13374 30.76 25 11 4 29.8416
468 2 0.13374 30.76 26 11 4 29.8416
469 2 0.13374 30.76 27 11 4 29.8416
470 2 0.13374 30.76 28 11 4 29.8416
471 2 0.13374 30.76 29 11 4 29.8416
472 2 0.13374 30.76 30 11 4 29.8416
473 2 0.13374 30.76 31 11 4 29.8416
474 2 0.13374 30.76 32 11 4 29.8416
475 2 0.13374 30.76 33 11 4 29.8416
476 2 0.13374 30.76 34 11 4 29.8416
477 2 0.13374 30.76 35 11 4 29.8416
478 2 0.13374 30.76 36 11 4 29.8416
479 2 0.13374 30.76 37 11 4 29.8416
480 2 0.13374 30.76 38 11 4 29.8416
481 2 0.13374 30.76 39 11 4 29.8416
482 2 0.13374 30.76 40 11 4 29.8416
483 2 0.808703 21.6533 1 12 4 29.8416
484 2 0.808703 21.6533 2 12 4 29.8416
485 2 0.808703 21.6533 3 12 4 29.8416
486 2 0.808703 21.6533 4 12 4 29.8416
487 2 0.808703 21.6533 5 12 4 29.8416
488 2 0.808703 21.6533 6 12 4 29.8416
489 2 0.808703 21.6533 7 12 4 29.8416
490 2 0.808703 21.6533 8 12 4 29.8416
491 2 0.808703 21.6533 9 12 4 29.8416
492 2 0.808703 21.6533 10 12 4 29.8416
493 2 0.808703 21.6533 11 12 4 29.8416
494 2 0.808703 21.6533 12 12 4 29.8416
495 2 0.808703 21.6533 13 12 4 29.8416
496 2 0.808703 21.6533 14 12 4 29.8416
497 2 0.808703 21.6533 15 12 4 29.8416
498 2 0.808703 21.6533 16 12 4 29.8416
499 2 0.808703 21.6533 17 12 4 29.8416
500 2 0.808703 21.6533 18 12 4 29.8416
501 2 0.808703 21.6533 19 12 4 29.8416
502 2 0.808703 21.6533 20 12 4 29.8416
503 2 0.808703 21.6533 21 12 4 29.8416
504 2 0.808703 21.6533 22 12 4 29.8416
505 2 0.808703 21.6533 23 12 4 29.8416
506 2 0.808703 21.6533 24 12 4 29.8416
507 2 0.808703 21.6533 25 12 4 29.8416
508 2 0.808703 21.6533 26 12 4 29.8416
509 2 0.808703 21.6533 27 12 4 29.8416
510 2 0.808703 21.6533 28 12 4 29.8416
511 2 0.808703 21.6533 29 12 4 29.8416
512 2 0.808703 21.6533 30 12 4 29.8416
513 2 0.808703 21.6533 31 12 4 29.8416
514 2 0.808703 21.6533 32 12 4 29.8416
515 2 0.808703 21.6533 33 12 4 29.8416
516 2 0.808703 21.6533 34 12 4 29.8416
517 2 0.808703 21.6533 35 12 4 29.8416
518 2 0.808703 21.6533 36 12 4 29.8416
519 2 0.808703 21.6533 37 12 4 29.8416
520 2 0.808703 21.6533 38 12 4 29.8416
521 2 0.808703 21.6533 39 12 4 29.8416
522 2 0.808703 21.6533 40 12 4 29.8416
523 2 38.7726 18.5709 1 13 4 29.8416
524 2 38.7726 18.5709 2 13 4 29.8416
525 2 38.7726 18.5709 3 13 4 29.8416
526 2 38.7726 18.5709 4 13 4 29.8416
527 2 38.7726 18.5709 5 13 4 29.8416
528 2 38.7726 18.5709 6 13 4 29.8416
529 2 38.7726 18.5709 7 13 4 29.8416
530 2 38.7726 18.5709 8 13 4 29.8416
531 2 38.7726 18.5709 9 13 4 29.8416
532 2 38.7726 18.5709 10 13 4 29.8416
533 2 38.7726 18.5709 11 13 4 29.8416
534 2 38.7726 18.5709 12 13 4 29.8416
535 2 38.7726 18.5709 13 13 4 29.8416
536 2 38.7726 18.5709 14 13 4 29.8416
537 2 38.7726 18.5709 15 13 4 29.8416
538 2 38.7726 18.5709 16 13 4 29.8416
539 2 38.7726 18.5709 17 13 4 29.8416
540 2 38.7726 18.5709 18 13 4 29.8416
541 2 38.7726 18.5709 19 13 4 29.8416
542 2 38.7726 18.5709 20 13 4 29.8416
543 2 38.7726 18.5709 21 13 4 29.8416
544 2 38.7726 18.5709 22 13 4 29.8416
545 2 38.7726 18.5709 23 13 4 29.8416
546 2 38.7726 18.5709 24 13 4 29.8416
547 2 38.7726 18.5709 25 13 4 29.8416
548 2 38.7726 18.5709 26 13 4 29.8416
549 2 38.7726 18.5709 27 13 4 29.8416
550 2 38.7726 18.5709 28 13 4 29.8416
551 2 38.7726 18.5709 29 13 4 29.8416
552 2 38.7726 18.5709 30 13 4 29.8416
553 2 38.7726 18.5709 31 13 4 29.8416
554 2 38.7726 18.5709 32 13 4 29.8416
555 2 38.7726 18.5709 33 13 4 29.8416
556 2 38.7726 18.5709 34 13 4 29.8416
557 2 38.7726 18.5709 35 13 4 29.8416
558 2 38.7726 18.5709 36 13 4 29.8416
559 2 38.7726 18.5709 37 13 4 29.8416
560 2 38.7726 18.5709 38 13 4 29.8416
561 2 38.7726 18.5709 39 13 4 29.8416
562 2 38.7726 18.5709 40 13 4 29.8416
563 2 13.204 23.0493 1 14 4 29.8416
564 2 13.204 23.0493 2 14 4 29.8416
565 2 13.204 23.0493 3 14 4 29.8416
566 2 13.204 23.0493 4 14 4 29.8416
567 2 13.204 23.0493 5 14 4 29.8416
568 2 13.204 23.0493 6 14 4 29.8416
569 2 13.204 23.0493 7 14 4 29.8416
570 2 13.204 23.0493 8 14 4 29.8416
571 2 13.204 23.0493 9 14 4 29.8416
572 2 13.204 23.0493 10 14 4 29.8416
573 2 13.204 23.0493 11 14 4 29.8416
574 2 13.204 23.0493 12 14 4 29.8416
575 2 13.204 23.0493 13 14 4 29.8416
576 2 13.204 23.0493 14 14 4 29.8416
577 2 13.204 23.0493 15 14 4 29.8416
578 2 13.204 23.0493 16 14 4 29.8416
579 2 13.204 23.0493 17 14 4 29.8416
580 2 13.204 23.0493 18 14 4 29.8416
581 2 13.204 23.0493 19 14 4 29.8416
582 2 13.204 23.0493 20 14 4 29.8416
583 2 13.204 23.0493 21 14 4 29.8416
584 2 13.204 23.0493 22 14 4 29.8416
585 2 13.204 23.0493 23 14 4 29.8416
586 2 13.204 23.0493 24 14 4 29.8416
587 2 13.204 23.0493 25 14 4 29.8416
588 2 13.204 23.0493 26 14 4 29.8416
589 2 13.204 23.0493 27 14 4 29.8416
590 2 13.204 23.0493 28 14 4 29.8416
591 2 13.204 23.0493 29 14 4 29.8416
592 2 13.204 23.0493 30 14 4 29.8416
593 2 13.204 23.0493 31 14 4 29.8416
594 2 13.204 23.0493 32 14 4 29.8416
595 2 13.204 23.0493 33 14 4 29.8416
596 2 13.204 23.0493 34 14 4 29.8416
597 2 13.204 23.0493 35 14 4 29.8416
598 2 13.204 23.0493 36 14 4 29.8416
599 2 13.204 23.0493 37 14 4 29.8416
600 2 13.204 23.0493 38 14 4 29.8416
601 2 13.204 23.0493 39 14 4 29.8416
602 2 13.204 23.0493 40 14 4 29.8416
603 2 38.587 31.4569 1 15 4 29.8416
604 2 38.587 31.4569 2 15 4 29.8416
605 2 38.587 31.4569 3 15 4 29.8416
606 2 38.587 31.4569 4 15 4 29.8416
607 2 38.587 31.4569 5 15 4 29.8416
608 2 38.587 31.4569 6 15 4 29.8416
609 2 38.587 31.4569 7 15 4 29.8416
610 2 38.587 31.4569 8 15 4 29.8416
611 2 38.587 31.4569 9 15 4 29.8416
612 2 38.587 31.4569 10 15 4 29.8416
613 2 38.587 31.4569 11 15 4 29.8416
614 2 38.587 31.4569 12 15 4 29.8416
615 2 38.587 31.4569 13 15 4 29.8416
616 2 38.587 31.4569 14 15 4 29.8416
617 2 38.587 31.4569 15 15 4 29.8416
618 2 38.587 31.4569 16 15 4 29.8416
619 2 38.587 31.4569 17 15 4 29.8416
620 2 38.587 31.4569 18 15 4 29.8416
621 2 38.587 31.4569 19 15 4 29.8416
622 2 38.587 31.4569 20 15 4 29.8416
623 2 38.587 31.4569 21 15 4 29.8416
624 2 38.587 31.4569 22 15 4 29.8416
625 2 38.587 31.4569 23 15 4 29.8416
626 2 38.587 31.4569 24 15 4 29.8416
627 2 38.587 31.4569 25 15 4 29.8416
628 2 38.587 31.4569 26 15 4 29.8416
629 2 38.587 31.4569 27 15 4 29.8416
630 2 38.587 31.4569 28 15 4 29.8416
631 2 38.587 31.4569 29 15 4 29.8416
632 2 38.587 31.4569 30 15 4 29.8416
633 2 38.587 31.4569 31 15 4 29.8416
634 2 38.587 31.4569 32 15 4 29.8416
635 2 38.587 31.4569 33 15 4 29.8416
636 2 38.587 31.4569 34 15 4 29.8416
637 2 38.587 31.4569 35 15 4 29.8416
638 2 38.587 31.4569 36 15 4 29.8416
639 2 38.587 31.4569 37 15 4 29.8416
640 2 38.587 31.4569 38 15 4 29.8416
641 2 38.587 31.4569 39 15 4 29.8416
642 2 38.587 31.4569 40 15 4 29.8416
643 2 32.6243 24.3898 1 16 4 29.8416
644 2 32.6243 24.3898 2 16 4 29.8416
645 2 32.6243 24.3898 3 16 4 29.8416
646 2 32.6243 24.3898 4 16 4 29.8416
647 2 32.6243 24.3898 5 16 4 29.8416
648 2 32.6243 24.3898 6 16 4 29.8416
649 2 32.6243 24.3898 7 16 4 29.8416
650 2 32.6243 24.3898 8 16 4 29.8416
651 2 32.6243 24.3898 9 16 4 29.8416
652 2 32.6243 24.3898 10 16 4 29.8416
653 2 32.6243 24.3898 11 16 4 29.8416
654 2 32.6243 24.3898 12 16 4 29.8416
655 2 32.6243 24.3898 13 16 4 29.8416
656 2 32.6243 24.3898 14 16 4 29.8416
657 2 32.6243 24.3898 15 16 4 29.8416
658 2 32.6243 24.3898 16 16 4 29.8416
659 2 32.6243 24.3898 17 16 4 29.8416
660 2 32.6243 24.3898 18 16 4 29.8416
661 2 32.6243 24.3898 19 16 4 29.8416
662 2 32.6243 24.3898 20 16 4 29.8416
663 2 32.6243 24.3898 21 16 4 29.8416
664 2 32.6243 24.3898 22 16 4 29.8416
665 2 32.6243 24.3898 23 16 4 29.8416
666 2 32.6243 24.3898 24 16 4 29.8416
667 2 32.6243 24.3898 25 16 4 29.8416
668 2 32.6243 24.3898 26 16 4 29.8416
669 2 32.6243 24.3898 27 16 4 29.8416
670 2 32.6243 24.3898 28 16 4 29.8416
671 2 32.6243 24.3898 29 16 4 29.8416
672 2 32.6243 24.3898 30 16 4 29.8416
673 2 32.6243 24.3898 31 16 4 29.8416
674 2 32.6243 24.3898 32 16 4 29.8416
675 2 32.6243 24.3898 33 16 4 29.8416
676 2 32.6243 24.3898 34 16 4 29.8416
677 2 32.6243 24.3898 35 16 4 29.8416
678 2 32.6243 24.3898 36 16 4 29.8416
679 2 32.6243 24.3898 37 16 4 29.8416
680 2 32.6243 24.3898 38 16 4 29.8416
681 2 32.6243 24.3898 39 16 4 29.8416
682 2 32.6243 24.3898 40 16 4 29.8416
683 2 35.0565 0.773315 1 17 4 29.8416
684 2 35.0565 0.773315 2 17 4 29.8416
685 2 35.0565 0.773315 3 17 4 29.8416
686 2 35.0565 0.773315 4 17 4 29.8416
687 2 35.0565 0.773315 5 17 4 29.8416
688 2 35.0565 0.773315 6 17 4 29.8416
689 2 35.0565 0.773315 7 17 4 29.8416
690 2 35.0565 0.773315 8 17 4 29.8416
691 2 35.0565 0.773315 9 17 4 29.8416
692 2 35.0565 0.773315 10 17 4 29.8416
693 2 35.0565 0.773315 11 17 4 29.8416
694 2 35.0565 0.773315 12 17 4 29.8416
695 2 35.0565 0.773315 13 17 4 29.8416
696 2 35.0565 0.773315 14 17 4 29.8416
697 2 35.0565 0.773315 15 17 4 29.8416
698 2 35.0565 0.773315 16 17 4 29.8416
699 2 35.0565 0.773315 17 17 4 29.8416
700 2 35.0565 0.773315 18 17 4 29.8416
701 2 35.0565 0.773315 19 17 4 29.8416
702 2 35.0565 0.773315 20 17 4 29.8416
703 2 35.0565 0.773315 21 17 4 29.8416
704 2 35.0565 0.773315 22 17 4 29.8416
705 2 35.0565 0.773315 23 17 4 29.8416
706 2 35.0565 0.773315 24 17 4 29.8416
707 2 35.0565 0.773315 25 17 4 29.8416
708 2 35.0565 0.773315 26 17 4 29.8416
709 2 35.0565 0.773315 27 17 4 29.8416
710 2 35.0565 0.773315 28 17 4 29.8416
711 2 35.0565 0.773315 29 17 4 29.8416
712 2 35.0565 0.773315 30 17 4 29.8416
713 2 35.0565 0.773315 31 17 4 29.8416
714 2 35.0565 0.773315 32 17 4 29.8416
715 2 35.0565 0.773315 33 17 4 29.8416
716 2 35.0565 0.773315 34 17 4 29.8416
717 2 35.0565 0.773315 35 17 4 29.8416
718 2 35.0565 0.773315 36 17 4 29.8416
719 2 35.0565 0.773315 37 17 4 29.8416
720 2 35.0565 0.773315 38 17 4 29.8416
721 2 35.0565 0.773315 39 17 4 29.8416
722 2 35.0565 0.773315 40 17 4 29.8416
723 2 24.5992 14.5048 1 18 4 29.8416
724 2 24.5992 14.5048 2 18 4 29.8416
725 2 24.5992 14.5048 3 18 4 29.8416
726 2 24.5992 14.5048 4 18 4 29.8416
727 2 24.5992 14.5048 5 18 4 29.8416
728 2 24.5992 14.5048 6 18 4 29.8416
729 2 24.5992 14.5048 7 18 4 29.8416
730 2 24.5992 14.5048 8 18 4 29.8416
731 2 24.5992 14.5048 9 18 4 29.8416
732 2 24.5992 14.5048 10 18 4 29.8416
733 2 24.5992 14.5048 11 18 4 29.8416
734 2 24.5992 14.5048 12 18 4 29.8416
735 2 24.5992 14.5048 13 18 4 29.8416
736 2 24.5992 14.5048 14 18 4 29.8416
737 2 24.5992 14.5048 15 18 4 29.8416
738 2 24.5992 14.5048 16 18 4 29.8416
739 2 24.5992 14.5048 17 18 4 29.8416
740 2 24.5992 14.5048 18 18 4 29.8416
741 2 24.5992 14.5048 19 18 4 29.8416
742 2 24.5992 14.5048 20 18 4 29.8416
743 2 24.5992 14.5048 21 18 4 29.8416
744 2 24.5992 14.5048 22 18 4 29.8416
745 2 24.5992 14.5048 23 18 4 29.8416
746 2 24.5992 14.5048 24 18 4 29.8416
747 2 24.5992 14.5048 25 18 4 29.8416
748 2 24.5992 14.5048 26 18 4 29.8416
749 2 24.5992 14.5048 27 18 4 29.8416
750 2 24.5992 14.5048 28 18 4 29.8416
751 2 24.5992 14.5048 29 18 4 29.8416
752 2 24.5992 14.5048 30 18 4 29.8416
753 2 24.5992 14.5048 31 18 4 29.8416
754 2 24.5992 14.5048 32 18 4 29.8416
755 2 24.5992 14.5048 33 18 4 29.8416
756 2 24.5992 14.5048 34 18 4 29.8416
757 2 24.5992 14.5048 35 18 4 29.8416
758 2 24.5992 14.5048 36 18 4 29.8416
759 2 24.5992 14.5048 37 18 4 29.8416
760 2 24.5992 14.5048 38 18 4 29.8416
761 2 24.5992 14.5048 39 18 4 29.8416
762 2 24.5992 14.5048 40 18 4 29.8416
763 2 15.3341 33.4417 1 19 4 29.8416
764 2 15.3341 33.4417 2 19 4 29.8416
765 2 15.3341 33.4417 3 19 4 29.8416
766 2 15.3341 33.4417 4 19 4 29.8416
767 2 15.3341 33.4417 5 19 4 29.8416
768 2 15.3341 33.4417 6 19 4 29.8416
769 2 15.3341 33.4417 7 19 4 29.8416
770 2 15.3341 33.4417 8 19 4 29.8416
771 2 15.3341 33.4417 9 19 4 29.8416
772 2 15.3341 33.4417 10 19 4 29.8416
773 2 15.3341 33.4417 11 19 4 29.8416
774 2 15.3341 33.4417 12 19 4 29.8416
775 2 15.3341 33.4417 13 19 4 29.8416
776 2 15.3341 33.4417 14 19 4 29.8416
777 2 15.3341 33.4417 15 19 4 29.8416
778 2 15.3341 33.4417 16 19 4 29.8416
779 2 15.3341 33.4417 17 19 4 29.8416
780 2 15.3341 33.4417 18 19 4 29.8416
781 2 15.3341 33.4417 19 19 4 29.8416
782 2 15.3341 33.4417 20 19 4 29.8416
783 2 15.3341 33.4417 21 19 4 29.8416
784 2 15.3341 33.4417 22 19 4 29.8416
785 2 15.3341 33.4417 23 19 4 29.8416
786 2 15.3341 33.4417 24 19 4 29.8416
787 2 15.3341 33.4417 25 19 4 29.8416
788 2 15.3341 33.4417 26 19 4 29.8416
789 2 15.3341 33.4417 27 19 4 29.8416
790 2 15.3341 33.4417 28 19 4 29.8416
791 2 15.3341 33.4417 29 19 4 29.8416
792 2 15.3341 33.4417 30 19 4 29.8416
793 2 15.3341 33.4417 31 19 4 29.8416
794 2 15.3341 33.4417 32 19 4 29.8416
795 2 15.3341 33.4417 33 19 4 29.8416
796 2 15.3341 33.4417 34 19 4 29.8416