ITEM: TIMESTEP
0
ITEM: NUMBER OF ATOMS
101722
ITEM: BOX BOUNDS pp pp ff
0.0000000000000000e+00 4.0000000000000000e+01
0.0000000000000000e+00 4.0000000000000000e+01
-1.0000000000000000e+00 8.5000000000000000e+01
ITEM: ATOMS id type xs ys zs
21 1 0.02215 0.0415 0.0116279
843 2 0.02215 0.0415 0.0232558
27 1 0.17975 0.064 0.0116279
1083 2 0.17975 0.064 0.0232558
38 1 0.5375 0.04275 0.0116279
1523 2 0.5375 0.04275 0.0232558
17 1 0.8775 0.019325 0.0116279
683 2 0.8775 0.019325 0.0232558
29 1 0.33 0.082 0.0116279
1163 2 0.33 0.082 0.0232558
8 1 0.6875 0.09225 0.0116279
323 2 0.6875 0.09225 0.0232558
5 1 0.975 0.14825 0.0116279
203 2 0.975 0.14825 0.0232558
23 1 0.06925 0.20875 0.0116279
923 2 0.06925 0.20875 0.0232558
25 1 0.22825 0.20375 0.0116279
1003 2 0.22825 0.20375 0.0232558
33 1 0.61 0.2145 0.0116279
1323 2 0.61 0.2145 0.0232558
24 1 0.425 0.255 0.0116279
963 2 0.425 0.255 0.0232558
30 1 0.8075 0.24675 0.0116279
1203 2 0.8075 0.24675 0.0232558
31 1 0.002575 0.3475 0.0116279
1243 2 0.002575 0.3475 0.0232558
6 1 0.1415 0.3675 0.0116279
243 2 0.1415 0.3675 0.0232558
18 1 0.615 0.3625 0.0116279
723 2 0.615 0.3625 0.0232558
1 1 0.9525 0.31 0.0116279
43 2 0.9525 0.31 0.0232558
32 1 0.2875 0.3875 0.0116279
1283 2 0.2875 0.3875 0.0232558
41 1 0.445 0.395 0.0116279
1643 2 0.445 0.395 0.0232558
22 1 0.795 0.41 0.0116279
883 2 0.795 0.41 0.0232558
34 1 0.18725 0.535 0.0116279
1363 2 0.18725 0.535 0.0232558
28 1 0.485 0.5325 0.0116279
1123 2 0.485 0.5325 0.0232558
2 1 0.6425 0.5025 0.0116279
83 2 0.6425 0.5025 0.0232558
13 1 0.97 0.465 0.0116279
523 2 0.97 0.465 0.0232558
12 1 0.020225 0.5425 0.0116279
483 2 0.020225 0.5425 0.0232558
14 1 0.33 0.575 0.0116279
563 2 0.33 0.575 0.0232558
16 1 0.815 0.61 0.0116279
643 2 0.815 0.61 0.0232558
37 1 0.505 0.6775 0.0116279
1483 2 0.505 0.6775 0.0232558
20 1 0.645 0.6675 0.0116279
803 2 0.645 0.6675 0.0232558
39 1 0.97 0.6275 0.0116279
1563 2 0.97 0.6275 0.0232558
3 1 0.215 0.6975 0.0116279
123 2 0.215 0.6975 0.0232558
11 1 0.00335 0.77 0.0116279
443 2 0.00335 0.77 0.0232558
19 1 0.3825 0.835 0.0116279
763 2 0.3825 0.835 0.0232558
9 1 0.54 0.815 0.0116279
363 2 0.54 0.815 0.0232558
10 1 0.7875 0.845 0.0116279
403 2 0.7875 0.845 0.0232558
15 1 0.965 0.7875 0.0116279
603 2 0.965 0.7875 0.0232558
40 1 0.020025 0.9825 0.0116279
1603 2 0.020025 0.9825 0.0232558
4 1 0.15725 0.935 0.0116279
163 2 0.15725 0.935 0.0232558
42 1 0.2875 0.9875 0.0116279
1683 2 0.2875 0.9875 0.0232558
7 1 0.425 0.97 0.0116279
283 2 0.425 0.97 0.0232558
26 1 0.6075 0.9725 0.0116279
1043 2 0.6075 0.9725 0.0232558
36 1 0.8025 0.9875 0.0116279
1443 2 0.8025 0.9875 0.0232558
35 1 0.995 0.95 0.0116279
1403 2 0.995 0.95 0.0232558
844 2 0.02215 0.0415 0.0348837
845 2 0.02215 0.0415 0.0465116
846 2 0.02215 0.0415 0.0581395
1084 2 0.17975 0.064 0.0348837
1085 2 0.17975 0.064 0.0465116
1086 2 0.17975 0.064 0.0581395
1524 2 0.5375 0.04275 0.0348837
1525 2 0.5375 0.04275 0.0465116
1526 2 0.5375 0.04275 0.0581395
684 2 0.8775 0.019325 0.0348837
685 2 0.8775 0.019325 0.0465116
686 2 0.8775 0.019325 0.0581395
1164 2 0.33 0.082 0.0348837
1165 2 0.33 0.082 0.0465116
1166 2 0.33 0.082 0.0581395
324 2 0.6875 0.09225 0.0348837
325 2 0.6875 0.09225 0.0465116
326 2 0.6875 0.09225 0.0581395
204 2 0.975 0.14825 0.0348837
205 2 0.975 0.14825 0.0465116
206 2 0.975 0.14825 0.0581395
924 2 0.06925 0.20875 0.0348837
925 2 0.06925 0.20875 0.0465116
926 2 0.06925 0.20875 0.0581395
1004 2 0.22825 0.20375 0.0348837
1005 2 0.22825 0.20375 0.0465116
1006 2 0.22825 0.20375 0.0581395
1324 2 0.61 0.2145 0.0348837
1325 2 0.61 0.2145 0.0465116
1326 2 0.61 0.2145 0.0581395
964 2 0.425 0.255 0.0348837
965 2 0.425 0.255 0.0465116
966 2 0.425 0.255 0.0581395
1204 2 0.8075 0.24675 0.0348837
1205 2 0.8075 0.24675 0.0465116
1206 2 0.8075 0.24675 0.0581395
1244 2 0.002575 0.3475 0.0348837
1245 2 0.002575 0.3475 0.0465116
1246 2 0.002575 0.3475 0.0581395
244 2 0.1415 0.3675 0.0348837
245 2 0.1415 0.3675 0.0465116
246 2 0.1415 0.3675 0.0581395
724 2 0.615 0.3625 0.0348837
725 2 0.615 0.3625 0.0465116
726 2 0.615 0.3625 0.0581395
44 2 0.9525 0.31 0.0348837
45 2 0.9525 0.31 0.0465116
46 2 0.9525 0.31 0.0581395
1284 2 0.2875 0.3875 0.0348837
1285 2 0.2875 0.3875 0.0465116
1286 2 0.2875 0.3875 0.0581395
1644 2 0.445 0.395 0.0348837
1645 2 0.445 0.395 0.0465116
1646 2 0.445 0.395 0.0581395
884 2 0.795 0.41 0.0348837
885 2 0.795 0.41 0.0465116
886 2 0.795 0.41 0.0581395
1364 2 0.18725 0.535 0.0348837
1365 2 0.18725 0.535 0.0465116
1366 2 0.18725 0.535 0.0581395
1124 2 0.485 0.5325 0.0348837
1125 2 0.485 0.5325 0.0465116
1126 2 0.485 0.5325 0.0581395
84 2 0.6425 0.5025 0.0348837
85 2 0.6425 0.5025 0.0465116
86 2 0.6425 0.5025 0.0581395
524 2 0.97 0.465 0.0348837
525 2 0.97 0.465 0.0465116
526 2 0.97 0.465 0.0581395
484 2 0.020225 0.5425 0.0348837
485 2 0.020225 0.5425 0.0465116
486 2 0.020225 0.5425 0.0581395
564 2 0.33 0.575 0.0348837
565 2 0.33 0.575 0.0465116
566 2 0.33 0.575 0.0581395
644 2 0.815 0.61 0.0348837
645 2 0.815 0.61 0.0465116
646 2 0.815 0.61 0.0581395
1484 2 0.505 0.6775 0.0348837
1485 2 0.505 0.6775 0.0465116
1486 2 0.505 0.6775 0.0581395
804 2 0.645 0.6675 0.0348837
805 2 0.645 0.6675 0.0465116
806 2 0.645 0.6675 0.0581395
1564 2 0.97 0.6275 0.0348837
1565 2 0.97 0.6275 0.0465116
1566 2 0.97 0.6275 0.0581395
124 2 0.215 0.6975 0.0348837
125 2 0.215 0.6975 0.0465116
126 2 0.215 0.6975 0.0581395
444 2 0.00335 0.77 0.0348837
445 2 0.00335 0.77 0.0465116
446 2 0.00335 0.77 0.0581395
764 2 0.3825 0.835 0.0348837
765 2 0.3825 0.835 0.0465116
766 2 0.3825 0.835 0.0581395
364 2 0.54 0.815 0.0348837
365 2 0.54 0.815 0.0465116
366 2 0.54 0.815 0.0581395
404 2 0.7875 0.845 0.0348837
405 2 0.7875 0.845 0.0465116
406 2 0.7875 0.845 0.0581395
604 2 0.965 0.7875 0.0348837
605 2 0.965 0.7875 0.0465116
606 2 0.965 0.7875 0.0581395
1604 2 0.020025 0.9825 0.0348837
1605 2 0.020025 0.9825 0.0465116
1606 2 0.020025 0.9825 0.0581395
164 2 0.15725 0.935 0.0348837
165 2 0.15725 0.935 0.0465116
166 2 0.15725 0.935 0.0581395
1684 2 0.2875 0.9875 0.0348837
1685 2 0.2875 0.9875 0.0465116
1686 2 0.2875 0.9875 0.0581395
284 2 0.425 0.97 0.0348837
285 2 0.425 0.97 0.0465116
286 2 0.425 0.97 0.0581395
1044 2 0.6075 0.9725 0.0348837
1045 2 0.6075 0.9725 0.0465116
1046 2 0.6075 0.9725 0.0581395
1444 2 0.8025 0.9875 0.0348837
1445 2 0.8025 0.9875 0.0465116
1446 2 0.8025 0.9875 0.0581395
1404 2 0.995 0.95 0.0348837
1405 2 0.995 0.95 0.0465116
1406 2 0.995 0.95 0.0581395
847 2 0.02215 0.0415 0.0697674
848 2 0.02215 0.0415 0.0813953
849 2 0.02215 0.0415 0.0930233
1087 2 0.17975 0.064 0.0697674
1088 2 0.17975 0.064 0.0813953
1089 2 0.17975 0.064 0.0930233
1527 2 0.5375 0.04275 0.0697674
1528 2 0.5375 0.04275 0.0813953
1529 2 0.5375 0.04275 0.0930233
687 2 0.8775 0.019325 0.0697674
688 2 0.8775 0.019325 0.0813953
689 2 0.8775 0.019325 0.0930233
1167 2 0.33 0.082 0.0697674
1168 2 0.33 0.082 0.0813953
1169 2 0.33 0.082 0.0930233
327 2 0.6875 0.09225 0.0697674
328 2 0.6875 0.09225 0.0813953
329 2 0.6875 0.09225 0.0930233
207 2 0.975 0.14825 0.0697674
208 2 0.975 0.14825 0.0813953
209 2 0.975 0.14825 0.0930233
927 2 0.06925 0.20875 0.0697674
928 2 0.06925 0.20875 0.0813953
929 2 0.06925 0.20875 0.0930233
1007 2 0.22825 0.20375 0.0697674
1008 2 0.22825 0.20375 0.0813953
1009 2 0.22825 0.20375 0.0930233
1327 2 0.61 0.2145 0.0697674
1328 2 0.61 0.2145 0.0813953
1329 2 0.61 0.2145 0.0930233
967 2 0.425 0.255 0.0697674
968 2 0.425 0.255 0.0813953
969 2 0.425 0.255 0.0930233
1207 2 0.8075 0.24675 0.0697674
1208 2 0.8075 0.24675 0.0813953
1209 2 0.8075 0.24675 0.0930233
1247 2 0.002575 0.3475 0.0697674
1248 2 0.002575 0.3475 0.0813953
1249 2 0.002575 0.3475 0.0930233
247 2 0.1415 0.3675 0.0697674
248 2 0.1415 0.3675 0.0813953
249 2 0.1415 0.3675 0.0930233
727 2 0.615 0.3625 0.0697674
728 2 0.615 0.3625 0.0813953
729 2 0.615 0.3625 0.0930233
47 2 0.9525 0.31 0.0697674
48 2 0.9525 0.31 0.0813953
49 2 0.9525 0.31 0.0930233
1287 2 0.2875 0.3875 0.0697674
1288 2 0.2875 0.3875 0.0813953
1289 2 0.2875 0.3875 0.0930233
1647 2 0.445 0.395 0.0697674
1648 2 0.445 0.395 0.0813953
1649 2 0.445 0.395 0.0930233
887 2 0.795 0.41 0.0697674
888 2 0.795 0.41 0.0813953
889 2 0.795 0.41 0.0930233
1367 2 0.18725 0.535 0.0697674
1368 2 0.18725 0.535 0.0813953
1369 2 0.18725 0.535 0.0930233
1127 2 0.485 0.5325 0.0697674
1128 2 0.485 0.5325 0.0813953
1129 2 0.485 0.5325 0.0930233
87 2 0.6425 0.5025 0.0697674
88 2 0.6425 0.5025 0.0813953
89 2 0.6425 0.5025 0.0930233
527 2 0.97 0.465 0.0697674
528 2 0.97 0.465 0.0813953
529 2 0.97 0.465 0.0930233
487 2 0.020225 0.5425 0.0697674
488 2 0.020225 0.5425 0.0813953
489 2 0.020225 0.5425 0.0930233
567 2 0.33 0.575 0.0697674
568 2 0.33 0.575 0.0813953
569 2 0.33 0.575 0.0930233
647 2 0.815 0.61 0.0697674
648 2 0.815 0.61 0.0813953
649 2 0.815 0.61 0.0930233
1487 2 0.505 0.6775 0.0697674
1488 2 0.505 0.6775 0.0813953
1489 2 0.505 0.6775 0.0930233
807 2 0.645 0.6675 0.0697674
808 2 0.645 0.6675 0.0813953
809 2 0.645 0.6675 0.0930233
1567 2 0.97 0.6275 0.0697674
1568 2 0.97 0.6275 0.0813953
1569 2 0.97 0.6275 0.0930233
127 2 0.215 0.6975 0.0697674
128 2 0.215 0.6975 0.0813953
129 2 0.215 0.6975 0.0930233
447 2 0.00335 0.77 0.0697674
448 2 0.00335 0.77 0.0813953
449 2 0.00335 0.77 0.0930233
767 2 0.3825 0.835 0.0697674
768 2 0.3825 0.835 0.0813953
769 2 0.3825 0.835 0.0930233
367 2 0.54 0.815 0.0697674
368 2 0.54 0.815 0.0813953
369 2 0.54 0.815 0.0930233
407 2 0.7875 0.845 0.0697674
408 2 0.7875 0.845 0.0813953
409 2 0.7875 0.845 0.0930233
607 2 0.965 0.7875 0.0697674
608 2 0.965 0.7875 0.0813953
609 2 0.965 0.7875 0.0930233
1607 2 0.020025 0.9825 0.0697674
1608 2 0.020025 0.9825 0.0813953
1609 2 0.020025 0.9825 0.0930233
167 2 0.15725 0.935 0.0697674
168 2 0.15725 0.935 0.0813953
169 2 0.15725 0.935 0.0930233
1687 2 0.2875 0.9875 0.0697674
1688 2 0.2875 0.9875 0.0813953
1689 2 0.2875 0.9875 0.0930233
287 2 0.425 0.97 0.0697674
288 2 0.425 0.97 0.0813953
289 2 0.425 0.97 0.0930233
1047 2 0.6075 0.9725 0.0697674
1048 2 0.6075 0.9725 0.0813953
1049 2 0.6075 0.9725 0.0930233
1447 2 0.8025 0.9875 0.0697674
1448 2 0.8025 0.9875 0.0813953
1449 2 0.8025 0.9875 0.0930233
1407 2 0.995 0.95 0.0697674
1408 2 0.995 0.95 0.0813953
1409 2 0.995 0.95 0.0930233
850 2 0.02215 0.0415 0.104651
851 2 0.02215 0.0415 0.116279
852 2 0.02215 0.0415 0.127907
1090 2 0.17975 0.064 0.104651
1091 2 0.17975 0.064 0.116279
1092 2 0.17975 0.064 0.127907
1530 2 0.5375 0.04275 0.104651
1531 2 0.5375 0.04275 0.116279
1532 2 0.5375 0.04275 0.127907
690 2 0.8775 0.019325 0.104651
691 2 0.8775 0.019325 0.116279
692 2 0.8775 0.019325 0.127907
1170 2 0.33 0.082 0.104651
1171 2 0.33 0.082 0.116279
1172 2 0.33 0.082 0.127907
330 2 0.6875 0.09225 0.104651
331 2 0.6875 0.09225 0.116279
332 2 0.6875 0.09225 0.127907
210 2 0.975 0.14825 0.104651
211 2 0.975 0.14825 0.116279
212 2 0.975 0.14825 0.127907
930 2 0.06925 0.20875 0.104651
931 2 0.06925 0.20875 0.116279
932 2 0.06925 0.20875 0.127907
1010 2 0.22825 0.20375 0.104651
1011 2 0.22825 0.20375 0.116279
1012 2 0.22825 0.20375 0.127907
1330 2 0.61 0.2145 0.104651
1331 2 0.61 0.2145 0.116279
1332 2 0.61 0.2145 0.127907
970 2 0.425 0.255 0.104651
971 2 0.425 0.255 0.116279
972 2 0.425 0.255 0.127907
1210 2 0.8075 0.24675 0.104651
1211 2 0.8075 0.24675 0.116279
1212 2 0.8075 0.24675 0.127907
1250 2 0.002575 0.3475 0.104651
1251 2 0.002575 0.3475 0.116279
1252 2 0.002575 0.3475 0.127907
250 2 0.1415 0.3675 0.104651
251 2 0.1415 0.3675 0.116279
252 2 0.1415 0.3675 0.127907
730 2 0.615 0.3625 0.104651
731 2 0.615 0.3625 0.116279
732 2 0.615 0.3625 0.127907
50 2 0.9525 0.31 0.104651
51 2 0.9525 0.31 0.116279
52 2 0.9525 0.31 0.127907
1290 2 0.2875 0.3875 0.104651
1291 2 0.2875 0.3875 0.116279
1292 2 0.2875 0.3875 0.127907
1650 2 0.445 0.395 0.104651
1651 2 0.445 0.395 0.116279
1652 2 0.445 0.395 0.127907
890 2 0.795 0.41 0.104651
891 2 0.795 0.41 0.116279
892 2 0.795 0.41 0.127907
1370 2 0.18725 0.535 0.104651
1371 2 0.18725 0.535 0.116279
1372 2 0.18725 0.535 0.127907
1130 2 0.485 0.5325 0.104651
1131 2 0.485 0.5325 0.116279
1132 2 0.485 0.5325 0.127907
90 2 0.6425 0.5025 0.104651
91 2 0.6425 0.5025 0.116279
92 2 0.6425 0.5025 0.127907
530 2 0.97 0.465 0.104651
531 2 0.97 0.465 0.116279
532 2 0.97 0.465 0.127907
490 2 0.020225 0.5425 0.104651
491 2 0.020225 0.5425 0.116279
492 2 0.020225 0.5425 0.127907
570 2 0.33 0.575 0.104651
571 2 0.33 0.575 0.116279
572 2 0.33 0.575 0.127907
650 2 0.815 0.61 0.104651
651 2 0.815 0.61 0.116279
652 2 0.815 0.61 0.127907
1490 2 0.505 0.6775 0.104651
1491 2 0.505 0.6775 0.116279
1492 2 0.505 0.6775 0.127907
810 2 0.645 0.6675 0.104651
811 2 0.645 0.6675 0.116279
812 2 0.645 0.6675 0.127907
1570 2 0.97 0.6275 0.104651
1571 2 0.97 0.6275 0.116279
1572 2 0.97 0.6275 0.127907
130 2 0.215 0.6975 0.104651
131 2 0.215 0.6975 0.116279
132 2 0.215 0.6975 0.127907
450 2 0.00335 0.77 0.104651
451 2 0.00335 0.77 0.116279
452 2 0.00335 0.77 0.127907
770 2 0.3825 0.835 0.104651
771 2 0.3825 0.835 0.116279
772 2 0.3825 0.835 0.127907
370 2 0.54 0.815 0.104651
371 2 0.54 0.815 0.116279
372 2 0.54 0.815 0.127907
410 2 0.7875 0.845 0.104651
411 2 0.7875 0.845 0.116279
412 2 0.7875 0.845 0.127907
610 2 0.965 0.7875 0.104651
611 2 0.965 0.7875 0.116279
612 2 0.965 0.7875 0.127907
1610 2 0.020025 0.9825 0.104651
1611 2 0.020025 0.9825 0.116279
1612 2 0.020025 0.9825 0.127907
170 2 0.15725 0.935 0.104651
171 2 0.15725 0.935 0.116279
172 2 0.15725 0.935 0.127907
1690 2 0.2875 0.9875 0.104651
1691 2 0.2875 0.9875 0.116279
1692 2 0.2875 0.9875 0.127907
290 2 0.425 0.97 0.104651
291 2 0.425 0.97 0.116279
292 2 0.425 0.97 0.127907
1050 2 0.6075 0.9725 0.104651
1051 2 0.6075 0.9725 0.116279
1052 2 0.6075 0.9725 0.127907
1450 2 0.8025 0.9875 0.104651
1451 2 0.8025 0.9875 0.116279
1452 2 0.8025 0.9875 0.127907
1410 2 0.995 0.95 0.104651
1411 2 0.995 0.95 0.116279
1412 2 0.995 0.95 0.127907
853 2 0.02215 0.0415 0.139535
854 2 0.02215 0.0415 0.151163
855 2 0.02215 0.0415 0.162791
1093 2 0.17975 0.064 0.139535
1094 2 0.17975 0.064 0.151163
1095 2 0.17975 0.064 0.162791
1533 2 0.5375 0.04275 0.139535
1534 2 0.5375 0.04275 0.151163
1535 2 0.5375 0.04275 0.162791
693 2 0.8775 0.019325 0.139535
694 2 0.8775 0.019325 0.151163
695 2 0.8775 0.019325 0.162791
1173 2 0.33 0.082 0.139535
1174 2 0.33 0.082 0.151163
1175 2 0.33 0.082 0.162791
333 2 0.6875 0.09225 0.139535
334 2 0.6875 0.09225 0.151163
335 2 0.6875 0.09225 0.162791
213 2 0.975 0.14825 0.139535
214 2 0.975 0.14825 0.151163
215 2 0.975 0.14825 0.162791
933 2 0.06925 0.20875 0.139535
934 2 0.06925 0.20875 0.151163
935 2 0.06925 0.20875 0.162791
1013 2 0.22825 0.20375 0.139535
1014 2 0.22825 0.20375 0.151163
1015 2 0.22825 0.20375 0.162791
1333 2 0.61 0.2145 0.139535
1334 2 0.61 0.2145 0.151163
1335 2 0.61 0.2145 0.162791
973 2 0.425 0.255 0.139535
974 2 0.425 0.255 0.151163
975 2 0.425 0.255 0.162791
1213 2 0.8075 0.24675 0.139535
1214 2 0.8075 0.24675 0.151163
1215 2 0.8075 0.24675 0.162791
1253 2 0.002575 0.3475 0.139535
1254 2 0.002575 0.3475 0.151163
1255 2 0.002575 0.3475 0.162791
253 2 0.1415 0.3675 0.139535
254 2 0.1415 0.3675 0.151163
255 2 0.1415 0.3675 0.162791
733 2 0.615 0.3625 0.139535
734 2 0.615 0.3625 0.151163
735 2 0.615 0.3625 0.162791
53 2 0.9525 0.31 0.139535
54 2 0.9525 0.31 0.151163
55 2 0.9525 0.31 0.162791
1293 2 0.2875 0.3875 0.139535
1294 2 0.2875 0.3875 0.151163
1295 2 0.2875 0.3875 0.162791
1653 2 0.445 0.395 0.139535
1654 2 0.445 0.395 0.151163
1655 2 0.445 0.395 0.162791
893 2 0.795 0.41 0.139535
894 2 0.795 0.41 0.151163
895 2 0.795 0.41 0.162791
1373 2 0.18725 0.535 0.139535
1374 2 0.18725 0.535 0.151163
1375 2 0.18725 0.535 0.162791
1133 2 0.485 0.5325 0.139535
1134 2 0.485 0.5325 0.151163
1135 2 0.485 0.5325 0.162791
93 2 0.6425 0.5025 0.139535
94 2 0.6425 0.5025 0.151163
95 2 0.6425 0.5025 0.162791
533 2 0.97 0.465 0.139535
534 2 0.97 0.465 0.151163
535 2 0.97 0.465 0.162791
493 2 0.020225 0.5425 0.139535
494 2 0.020225 0.5425 0.151163
495 2 0.020225 0.5425 0.162791
573 2 0.33 0.575 0.139535
574 2 0.33 0.575 0.151163
575 2 0.33 0.575 0.162791
653 2 0.815 0.61 0.139535
654 2 0.815 0.61 0.151163
655 2 0.815 0.61 0.162791
1493 2 0.505 0.6775 0.139535
1494 2 0.505 0.6775 0.151163
1495 2 0.505 0.6775 0.162791
813 2 0.645 0.6675 0.139535
814 2 0.645 0.6675 0.151163
815 2 0.645 0.6675 0.162791
1573 2 0.97 0.6275 0.139535
1574 2 0.97 0.6275 0.151163
1575 2 0.97 0.6275 0.162791
133 2 0.215 0.6975 0.139535
134 2 0.215 0.6975 0.151163
135 2 0.215 0.6975 0.162791
453 2 0.00335 0.77 0.139535
454 2 0.00335 0.77 0.151163
455 2 0.00335 0.77 0.162791
773 2 0.3825 0.835 0.139535
774 2 0.3825 0.835 0.151163
775 2 0.3825 0.835 0.162791
373 2 0.54 0.815 0.139535
374 2 0.54 0.815 0.151163
375 2 0.54 0.815 0.162791
413 2 0.7875 0.845 0.139535
414 2 0.7875 0.845 0.151163
415 2 0.7875 0.845 0.162791
613 2 0.965 0.7875 0.139535
614 2 0.965 0.7875 0.151163
615 2 0.965 0.7875 0.162791
1613 2 0.020025 0.9825 0.139535
1614 2 0.020025 0.9825 0.151163
1615 2 0.020025 0.9825 0.162791
173 2 0.15725 0.935 0.139535
174 2 0.15725 0.935 0.151163
175 2 0.15725 0.935 0.162791
1693 2 0.2875 0.9875 0.139535
1694 2 0.2875 0.9875 0.151163
1695 2 0.2875 0.9875 0.162791
293 2 0.425 0.97 0.139535
294 2 0.425 0.97 0.151163
295 2 0.425 0.97 0.162791
1053 2 0.6075 0.9725 0.139535
1054 2 0.6075 0.9725 0.151163
1055 2 0.6075 0.9725 0.162791
1453 2 0.8025 0.9875 0.139535
1454 2 0.8025 0.9875 0.151163
1455 2 0.8025 0.9875 0.162791
1413 2 0.995 0.95 0.139535
1414 2 0.995 0.95 0.151163
1415 2 0.995 0.95 0.162791
856 2 0.02215 0.0415 0.174419
857 2 0.02215 0.0415 0.186047
858 2 0.02215 0.0415 0.197674
1096 2 0.17975 0.064 0.174419
1097 2 0.17975 0.064 0.186047
1098 2 0.17975 0.064 0.197674
1536 2 0.5375 0.04275 0.174419
1537 2 0.5375 0.04275 0.186047
1538 2 0.5375 0.04275 0.197674
696 2 0.8775 0.019325 0.174419
697 2 0.8775 0.019325 0.186047
698 2 0.8775 0.019325 0.197674
1176 2 0.33 0.082 0.174419
1177 2 0.33 0.082 0.186047
1178 2 0.33 0.082 0.197674
336 2 0.6875 0.09225 0.174419
337 2 0.6875 0.09225 0.186047
338 2 0.6875 0.09225 0.197674
216 2 0.975 0.14825 0.174419
217 2 0.975 0.14825 0.186047
218 2 0.975 0.14825 0.197674
936 2 0.06925 0.20875 0.174419
937 2 0.06925 0.20875 0.186047
938 2 0.06925 0.20875 0.197674
1016 2 0.22825 0.20375 0.174419
1017 2 0.22825 0.20375 0.186047
1018 2 0.22825 0.20375 0.197674
1336 2 0.61 0.2145 0.174419
1337 2 0.61 0.2145 0.186047
1338 2 0.61 0.2145 0.197674
976 2 0.425 0.255 0.174419
977 2 0.425 0.255 0.186047
978 2 0.425 0.255 0.197674
1216 2 0.8075 0.24675 0.174419
1217 2 0.8075 0.24675 0.186047
1218 2 0.8075 0.24675 0.197674
1256 2 0.002575 0.3475 0.174419
1257 2 0.002575 0.3475 0.186047
1258 2 0.002575 0.3475 0.197674
256 2 0.1415 0.3675 0.174419
257 2 0.1415 0.3675 0.186047
258 2 0.1415 0.3675 0.197674
736 2 0.615 0.3625 0.174419
737 2 0.615 0.3625 0.186047
738 2 0.615 0.3625 0.197674
56 2 0.9525 0.31 0.174419
57 2 0.9525 0.31 0.186047
58 2 0.9525 0.31 0.197674
1296 2 0.2875 0.3875 0.174419
1297 2 0.2875 0.3875 0.186047
1298 2 0.2875 0.3875 0.197674
1656 2 0.445 0.395 0.174419
1657 2 0.445 0.395 0.186047
1658 2 0.445 0.395 0.197674
896 2 0.795 0.41 0.174419
897 2 0.795 0.41 0.186047
898 2 0.795 0.41 0.197674
1376 2 0.18725 0.535 0.174419
1377 2 0.18725 0.535 0.186047
1378 2 0.18725 0.535 0.197674
1136 2 0.485 0.5325 0.174419
1137 2 0.485 0.5325 0.186047
1138 2 0.485 0.5325 0.197674
96 2 0.6425 0.5025 0.174419
97 2 0.6425 0.5025 0.186047
98 2 0.6425 0.5025 0.197674
536 2 0.97 0.465 0.174419
537 2 0.97 0.465 0.186047
538 2 0.97 0.465 0.197674
496 2 0.020225 0.5425 0.174419
497 2 0.020225 0.5425 0.186047
498 2 0.020225 0.5425 0.197674
576 2 0.33 0.575 0.174419
577 2 0.33 0.575 0.186047
578 2 0.33 0.575 0.197674
656 2 0.815 0.61 0.174419
657 2 0.815 0.61 0.186047
658 2 0.815 0.61 0.197674
1496 2 0.505 0.6775 0.174419
1497 2 0.505 0.6775 0.186047
1498 2 0.505 0.6775 0.197674
816 2 0.645 0.6675 0.174419
817 2 0.645 0.6675 0.186047
818 2 0.645 0.6675 0.197674
1576 2 0.97 0.6275 0.174419
1577 2 0.97 0.6275 0.186047
1578 2 0.97 0.6275 0.197674
136 2 0.215 0.6975 0.174419
137 2 0.215 0.6975 0.186047
138 2 0.215 0.6975 0.197674
456 2 0.00335 0.77 0.174419
457 2 0.00335 0.77 0.186047
458 2 0.00335 0.77 0.197674
776 2 0.3825 0.835 0.174419
777 2 0.3825 0.835 0.186047
778 2 0.3825 0.835 0.197674
376 2 0.54 0.815 0.174419
377 2 0.54 0.815 0.186047
378 2 0.54 0.815 0.197674
416 2 0.7875 0.845 0.174419
417 2 0.7875 0.845 0.186047
418 2 0.7875 0.845 0.197674
616 2 0.965 0.7875 0.174419
617 2 0.965 0.7875 0.186047
618 2 0.965 0.7875 0.197674
1616 2 0.020025 0.9825 0.174419
1617 2 0.020025 0.9825 0.186047
1618 2 0.020025 0.9825 0.197674
176 2 0.15725 0.935 0.174419
177 2 0.15725 0.935 0.186047
178 2 0.15725 0.935 0.197674
1696 2 0.2875 0.9875 0.174419
1697 2 0.2875 0.9875 0.186047
1698 2 0.2875 0.9875 0.197674
296 2 0.425 0.97 0.174419
297 2 0.425 0.97 0.186047
298 2 0.425 0.97 0.197674
1056 2 0.6075 0.9725 0.174419
1057 2 0.6075 0.9725 0.186047
1058 2 0.6075 0.9725 0.197674
1456 2 0.8025 0.9875 0.174419
1457 2 0.8025 0.9875 0.186047
1458 2 0.8025 0.9875 0.197674
1416 2 0.995 0.95 0.174419
1417 2 0.995 0.95 0.186047
1418 2 0.995 0.95 0.197674
859 2 0.02215 0.0415 0.209302
860 2 0.02215 0.0415 0.22093
861 2 0.02215 0.0415 0.232558
1099 2 0.17975 0.064 0.209302
1100 2 0.17975 0.064 0.22093
1101 2 0.17975 0.064 0.232558
1539 2 0.5375 0.04275 0.209302
1540 2 0.5375 0.04275 0.22093
1541 2 0.5375 0.04275 0.232558
699 2 0.8775 0.019325 0.209302
700 2 0.8775 0.019325 0.22093
701 2 0.8775 0.019325 0.232558
1179 2 0.33 0.082 0.209302
1180 2 0.33 0.082 0.22093
1181 2 0.33 0.082 0.232558
339 2 0.6875 0.09225 0.209302
340 2 0.6875 0.09225 0.22093
341 2 0.6875 0.09225 0.232558
219 2 0.975 0.14825 0.209302
220 2 0.975 0.14825 0.22093
221 2 0.975 0.14825 0.232558
939 2 0.06925 0.20875 0.209302
940 2 0.06925 0.20875 0.22093
941 2 0.06925 0.20875 0.232558
1019 2 0.22825 0.20375 0.209302
1020 2 0.22825 0.20375 0.22093
1021 2 0.22825 0.20375 0.232558
1339 2 0.61 0.2145 0.209302
1340 2 0.61 0.2145 0.22093
1341 2 0.61 0.2145 0.232558
979 2 0.425 0.255 0.209302
980 2 0.425 0.255 0.22093
981 2 0.425 0.255 0.232558
1219 2 0.8075 0.24675 0.209302
1220 2 0.8075 0.24675 0.22093
1221 2 0.8075 0.24675 0.232558
1259 2 0.002575 0.3475 0.209302
1260 2 0.002575 0.3475 0.22093
1261 2 0.002575 0.3475 0.232558
259 2 0.1415 0.3675 0.209302
260 2 0.1415 0.3675 0.22093
261 2 0.1415 0.3675 0.232558
739 2 0.615 0.3625 0.209302
740 2 0.615 0.3625 0.22093
741 2 0.615 0.3625 0.232558
59 2 0.9525 0.31 0.209302
60 2 0.9525 0.31 0.22093
61 2 0.9525 0.31 0.232558
1299 2 0.2875 0.3875 0.209302
1300 2 0.2875 0.3875 0.22093
1301 2 0.2875 0.3875 0.232558
1659 2 0.445 0.395 0.209302
1660 2 0.445 0.395 0.22093
1661 2 0.445 0.395 0.232558
899 2 0.795 0.41 0.209302
900 2 0.795 0.41 0.22093
901 2 0.795 0.41 0.232558
1379 2 0.18725 0.535 0.209302
1380 2 0.18725 0.535 0.22093
1381 2 0.18725 0.535 0.232558
1139 2 0.485 0.5325 0.209302
1140 2 0.485 0.5325 0.22093
1141 2 0.485 0.5325 0.232558
99 2 0.6425 0.5025 0.209302
100 2 0.6425 0.5025 0.22093
101 2 0.6425 0.5025 0.232558
539 2 0.97 0.465 0.209302
540 2 0.97 0.465 0.22093
541 2 0.97 0.465 0.232558
499 2 0.020225 0.5425 0.209302
500 2 0.020225 0.5425 0.22093
501 2 0.020225 0.5425 0.232558
579 2 0.33 0.575 0.209302
580 2 0.33 0.575 0.22093
581 2 0.33 0.575 0.232558
659 2 0.815 0.61 0.209302
660 2 0.815 0.61 0.22093
661 2 0.815 0.61 0.232558
1499 2 0.505 0.6775 0.209302
1500 2 0.505 0.6775 0.22093
1501 2 0.505 0.6775 0.232558
819 2 0.645 0.6675 0.209302
820 2 0.645 0.6675 0.22093
821 2 0.645 0.6675 0.232558
1579 2 0.97 0.6275 0.209302
1580 2 0.97 0.6275 0.22093
1581 2 0.97 0.6275 0.232558
139 2 0.215 0.6975 0.209302
140 2 0.215 0.6975 0.22093
141 2 0.215 0.6975 0.232558
459 2 0.00335 0.77 0.209302
460 2 0.00335 0.77 0.22093
461 2 0.00335 0.77 0.232558
779 2 0.3825 0.835 0.209302
780 2 0.3825 0.835 0.22093
781 2 0.3825 0.835 0.232558
379 2 0.54 0.815 0.209302
380 2 0.54 0.815 0.22093
381 2 0.54 0.815 0.232558
419 2 0.7875 0.845 0.209302
420 2 0.7875 0.845 0.22093
421 2 0.7875 0.845 0.232558
619 2 0.965 0.7875 0.209302
620 2 0.965 0.7875 0.22093
621 2 0.965 0.7875 0.232558
1619 2 0.020025 0.9825 0.209302
1620 2 0.020025 0.9825 0.22093
1621 2 0.020025 0.9825 0.232558
179 2 0.15725 0.935 0.209302
180 2 0.15725 0.935 0.22093
181 2 0.15725 0.935 0.232558
1699 2 0.2875 0.9875 0.209302
1700 2 0.2875 0.9875 0.22093
1701 2 0.2875 0.9875 0.232558
299 2 0.425 0.97 0.209302
300 2 0.425 0.97 0.22093
301 2 0.425 0.97 0.232558
1059 2 0.6075 0.9725 0.209302
1060 2 0.6075 0.9725 0.22093
1061 2 0.6075 0.9725 0.232558
1459 2 0.8025 0.9875 0.209302
1460 2 0.8025 0.9875 0.22093
1461 2 0.8025 0.9875 0.232558
1419 2 0.995 0.95 0.209302
1420 2 0.995 0.95 0.22093
1421 2 0.995 0.95 0.232558
862 2 0.02215 0.0415 0.244186
863 2 0.02215 0.0415 0.255814
864 2 0.02215 0.0415 0.267442
1102 2 0.17975 0.064 0.244186
1103 2 0.17975 0.064 0.255814
1104 2 0.17975 0.064 0.267442
1542 2 0.5375 0.04275 0.244186
1543 2 0.5375 0.04275 0.255814
1544 2 0.5375 0.04275 0.267442
702 2 0.8775 0.019325 0.244186
703 2 0.8775 0.019325 0.255814
704 2 0.8775 0.019325 0.267442
1182 2 0.33 0.082 0.244186
1183 2 0.33 0.082 0.255814
1184 2 0.33 0.082 0.267442
342 2 0.6875 0.09225 0.244186
343 2 0.6875 0.09225 0.255814
344 2 0.6875 0.09225 0.267442
222 2 0.975 0.14825 0.244186
223 2 0.975 0.14825 0.255814
224 2 0.975 0.14825 0.267442
942 2 0.06925 0.20875 0.244186
943 2 0.06925 0.20875 0.255814
944 2 0.06925 0.20875 0.267442
1022 2 0.22825 0.20375 0.244186
1023 2 0.22825 0.20375 0.255814
1024 2 0.22825 0.20375 0.267442
1342 2 0.61 0.2145 0.244186
1343 2 0.61 0.2145 0.255814
1344 2 0.61 0.2145 0.267442
982 2 0.425 0.255 0.244186
983 2 0.425 0.255 0.255814
984 2 0.425 0.255 0.267442
1222 2 0.8075 0.24675 0.244186
1223 2 0.8075 0.24675 0.255814
1224 2 0.8075 0.24675 0.267442
1262 2 0.002575 0.3475 0.244186
1263 2 0.002575 0.3475 0.255814
1264 2 0.002575 0.3475 0.267442
262 2 0.1415 0.3675 0.244186
263 2 0.1415 0.3675 0.255814
264 2 0.1415 0.3675 0.267442
742 2 0.615 0.3625 0.244186
743 2 0.615 0.3625 0.255814
744 2 0.615 0.3625 0.267442
62 2 0.9525 0.31 0.244186
63 2 0.9525 0.31 0.255814
64 2 0.9525 0.31 0.267442
1302 2 0.2875 0.3875 0.244186
1303 2 0.2875 0.3875 0.255814
1304 2 0.2875 0.3875 0.267442
1662 2 0.445 0.395 0.244186
1663 2 0.445 0.395 0.255814
1664 2 0.445 0.395 0.267442
902 2 0.795 0.41 0.244186
903 2 0.795 0.41 0.255814
904 2 0.795 0.41 0.267442
1382 2 0.18725 0.535 0.244186
1383 2 0.18725 0.535 0.255814
1384 2 0.18725 0.535 0.267442
1142 2 0.485 0.5325 0.244186
1143 2 0.485 0.5325 0.255814
1144 2 0.485 0.5325 0.267442
102 2 0.6425 0.5025 0.244186
103 2 0.6425 0.5025 0.255814
104 2 0.6425 0.5025 0.267442
542 2 0.97 0.465 0.244186
543 2 0.97 0.465 0.255814
544 2 0.97 0.465 0.267442
502 2 0.020225 0.5425 0.244186
503 2 0.020225 0.5425 0.255814
504 2 0.020225 0.5425 0.267442
582 2 0.33 0.575 0.244186
583 2 0.33 0.575 0.255814
584 2 0.33 0.575 0.267442
662 2 0.815 0.61 0.244186
663 2 0.815 0.61 0.255814
664 2 0.815 0.61 0.267442
1502 2 0.505 0.6775 0.244186
1503 2 0.505 0.6775 0.255814
1504 2 0.505 0.6775 0.267442
822 2 0.645 0.6675 0.244186
823 2 0.645 0.6675 0.255814
824 2 0.645 0.6675 0.267442
1582 2 0.97 0.6275 0.244186
1583 2 0.97 0.6275 0.255814
1584 2 0.97 0.6275 0.267442
142 2 0.215 0.6975 0.244186
143 2 0.215 0.6975 0.255814
144 2 0.215 0.6975 0.267442
462 2 0.00335 0.77 0.244186
463 2 0.00335 0.77 0.255814
464 2 0.00335 0.77 0.267442
782 2 0.3825 0.835 0.244186
783 2 0.3825 0.835 0.255814
784 2 0.3825 0.835 0.267442
382 2 0.54 0.815 0.244186
383 2 0.54 0.815 0.255814
384 2 0.54 0.815 0.267442
422 2 0.7875 0.845 0.244186
423 2 0.7875 0.845 0.255814
424 2 0.7875 0.845 0.267442
622 2 0.965 0.7875 0.244186
623 2 0.965 0.7875 0.255814
624 2 0.965 0.7875 0.267442
1622 2 0.020025 0.9825 0.244186
1623 2 0.020025 0.9825 0.255814
1624 2 0.020025 0.9825 0.267442
182 2 0.15725 0.935 0.244186
183 2 0.15725 0.935 0.255814
184 2 0.15725 0.935 0.267442
1702 2 0.2875 0.9875 0.244186
1703 2 0.2875 0.9875 0.255814
1704 2 0.2875 0.9875 0.267442
302 2 0.425 0.97 0.244186
303 2 0.425 0.97 0.255814
304 2 0.425 0.97 0.267442
1062 2 0.6075 0.9725 0.244186
1063 2 0.6075 0.9725 0.255814
1064 2 0.6075 0.9725 0.267442
1462 2 0.8025 0.9875 0.244186
1463 2 0.8025 0.9875 0.255814
1464 2 0.8025 0.9875 0.267442
1422 2 0.995 0.95 0.244186
1423 2 0.995 0.95 0.255814
1424 2 0.995 0.95 0.267442
865 2 0.02215 0.0415 0.27907
866 2 0.02215 0.0415 0.290698
867 2 0.02215 0.0415 0.302326
1105 2 0.17975 0.064 0.27907
1106 2 0.17975 0.064 0.290698
1107 2 0.17975 0.064 0.302326
1545 2 0.5375 0.04275 0.27907
1546 2 0.5375 0.04275 0.290698
1547 2 0.5375 0.04275 0.302326
705 2 0.8775 0.019325 0.27907
706 2 0.8775 0.019325 0.290698
707 2 0.8775 0.019325 0.302326
1185 2 0.33 0.082 0.27907
1186 2 0.33 0.082 0.290698
1187 2 0.33 0.082 0.302326
345 2 0.6875 0.09225 0.27907
346 2 0.6875 0.09225 0.290698
347 2 0.6875 0.09225 0.302326
225 2 0.975 0.14825 0.27907
226 2 0.975 0.14825 0.290698
227 2 0.975 0.14825 0.302326
945 2 0.06925 0.20875 0.27907
946 2 0.06925 0.20875 0.290698
947 2 0.06925 0.20875 0.302326
1025 2 0.22825 0.20375 0.27907
1026 2 0.22825 0.20375 0.290698
1027 2 0.22825 0.20375 0.302326
1345 2 0.61 0.2145 0.27907
1346 2 0.61 0.2145 0.290698
1347 2 0.61 0.2145 0.302326
985 2 0.425 0.255 0.27907
986 2 0.425 0.255 0.290698
987 2 0.425 0.255 0.302326
1225 2 0.8075 0.24675 0.27907
1226 2 0.8075 0.24675 0.290698
1227 2 0.8075 0.24675 0.302326
1265 2 0.002575 0.3475 0.27907
1266 2 0.002575 0.3475 0.290698
1267 2 0.002575 0.3475 0.302326
265 2 0.1415 0.3675 0.27907
266 2 0.1415 0.3675 0.290698
267 2 0.1415 0.3675 0.302326
745 2 0.615 0.3625 0.27907
746 2 0.615 0.3625 0.290698
747 2 0.615 0.3625 0.302326
65 2 0.9525 0.31 0.27907
66 2 0.9525 0.31 0.290698
67 2 0.9525 0.31 0.302326
1305 2 0.2875 0.3875 0.27907
1306 2 0.2875 0.3875 0.290698
1307 2 0.2875 0.3875 0.302326
1665 2 0.445 0.395 0.27907
1666 2 0.445 0.395 0.290698
1667 2 0.445 0.395 0.302326
905 2 0.795 0.41 0.27907
906 2 0.795 0.41 0.290698
907 2 0.795 0.41 0.302326
1385 2 0.18725 0.535 0.27907
1386 2 0.18725 0.535 0.290698
1387 2 0.18725 0.535 0.302326
1145 2 0.485 0.5325 0.27907