#Header
21722 atoms
1680 bonds
1638 angles
5 atom types
1 bond types
1 angle types
0 40 xlo xhi
0 40 ylo yhi
-1 85 zlo zhi

Masses

1 1000
2 1000
3 6.4e-05
4 0.000512
5 0.001728

Atoms # full

1 1 38.1 12.4 0 1 4 29.8
2 1 25.7 20.1 0 2 4 29.8
3 1 8.6 27.9 0 3 4 29.8
4 1 6.29 37.4 0 4 4 29.8
5 1 39 5.93 0 5 4 29.8
6 1 5.66 14.7 0 6 4 29.8
7 1 17 38.8 0 7 4 29.8
8 1 27.5 3.69 0 8 4 29.8
9 1 21.6 32.6 0 9 4 29.8
10 1 31.5 33.8 0 10 4 29.8
11 1 0.134 30.8 0 11 4 29.8
12 1 0.809 21.7 0 12 4 29.8
13 1 38.8 18.6 0 13 4 29.8
14 1 13.2 23 0 14 4 29.8
15 1 38.6 31.5 0 15 4 29.8
16 1 32.6 24.4 0 16 4 29.8
17 1 35.1 0.773 0 17 4 29.8
18 1 24.6 14.5 0 18 4 29.8
19 1 15.3 33.4 0 19 4 29.8
20 1 25.8 26.7 0 20 4 29.8
21 1 0.886 1.66 0 21 4 29.8
22 1 31.8 16.4 0 22 4 29.8
23 1 2.77 8.35 0 23 4 29.8
24 1 17 10.2 0 24 4 29.8
25 1 9.13 8.15 0 25 4 29.8
26 1 24.3 38.9 0 26 4 29.8
27 1 7.19 2.56 0 27 4 29.8
28 1 19.4 21.3 0 28 4 29.8
29 1 13.2 3.28 0 29 4 29.8
30 1 32.3 9.87 0 30 4 29.8
31 1 0.103 13.9 0 31 4 29.8
32 1 11.5 15.5 0 32 4 29.8
33 1 24.4 8.58 0 33 4 29.8
34 1 7.49 21.4 0 34 4 29.8
35 1 39.8 38 0 35 4 29.8
36 1 32.1 39.5 0 36 4 29.8
37 1 20.2 27.1 0 37 4 29.8
38 1 21.5 1.71 0 38 4 29.8
39 1 38.8 25.1 0 39 4 29.8
40 1 0.801 39.3 0 40 4 29.8
41 1 17.8 15.8 0 41 4 29.8
42 1 11.5 39.5 0 42 4 29.8
43 2 38.1 12.4 1 1 4 29.8
44 2 38.1 12.4 2 1 4 29.8
45 2 38.1 12.4 3 1 4 29.8
46 2 38.1 12.4 4 1 4 29.8
47 2 38.1 12.4 5 1 4 29.8
48 2 38.1 12.4 6 1 4 29.8
49 2 38.1 12.4 7 1 4 29.8
50 2 38.1 12.4 8 1 4 29.8
51 2 38.1 12.4 9 1 4 29.8
52 2 38.1 12.4 10 1 4 29.8
53 2 38.1 12.4 11 1 4 29.8
54 2 38.1 12.4 12 1 4 29.8
55 2 38.1 12.4 13 1 4 29.8
56 2 38.1 12.4 14 1 4 29.8
57 2 38.1 12.4 15 1 4 29.8
58 2 38.1 12.4 16 1 4 29.8
59 2 38.1 12.4 17 1 4 29.8
60 2 38.1 12.4 18 1 4 29.8
61 2 38.1 12.4 19 1 4 29.8
62 2 38.1 12.4 20 1 4 29.8
63 2 38.1 12.4 21 1 4 29.8
64 2 38.1 12.4 22 1 4 29.8
65 2 38.1 12.4 23 1 4 29.8
66 2 38.1 12.4 24 1 4 29.8
67 2 38.1 12.4 25 1 4 29.8
68 2 38.1 12.4 26 1 4 29.8
69 2 38.1 12.4 27 1 4 29.8
70 2 38.1 12.4 28 1 4 29.8
71 2 38.1 12.4 29 1 4 29.8
72 2 38.1 12.4 30 1 4 29.8
73 2 38.1 12.4 31 1 4 29.8
74 2 38.1 12.4 32 1 4 29.8
75 2 38.1 12.4 33 1 4 29.8
76 2 38.1 12.4 34 1 4 29.8
77 2 38.1 12.4 35 1 4 29.8
78 2 38.1 12.4 36 1 4 29.8
79 2 38.1 12.4 37 1 4 29.8
80 2 38.1 12.4 38 1 4 29.8
81 2 38.1 12.4 39 1 4 29.8
82 2 38.1 12.4 40 1 4 29.8
83 2 25.7 20.1 1 2 4 29.8
84 2 25.7 20.1 2 2 4 29.8
85 2 25.7 20.1 3 2 4 29.8
86 2 25.7 20.1 4 2 4 29.8
87 2 25.7 20.1 5 2 4 29.8
88 2 25.7 20.1 6 2 4 29.8
89 2 25.7 20.1 7 2 4 29.8
90 2 25.7 20.1 8 2 4 29.8
91 2 25.7 20.1 9 2 4 29.8
92 2 25.7 20.1 10 2 4 29.8
93 2 25.7 20.1 11 2 4 29.8
94 2 25.7 20.1 12 2 4 29.8
95 2 25.7 20.1 13 2 4 29.8
96 2 25.7 20.1 14 2 4 29.8
97 2 25.7 20.1 15 2 4 29.8
98 2 25.7 20.1 16 2 4 29.8
99 2 25.7 20.1 17 2 4 29.8
100 2 25.7 20.1 18 2 4 29.8
101 2 25.7 20.1 19 2 4 29.8
102 2 25.7 20.1 20 2 4 29.8
103 2 25.7 20.1 21 2 4 29.8
104 2 25.7 20.1 22 2 4 29.8
105 2 25.7 20.1 23 2 4 29.8
106 2 25.7 20.1 24 2 4 29.8
107 2 25.7 20.1 25 2 4 29.8
108 2 25.7 20.1 26 2 4 29.8
109 2 25.7 20.1 27 2 4 29.8
110 2 25.7 20.1 28 2 4 29.8
111 2 25.7 20.1 29 2 4 29.8
112 2 25.7 20.1 30 2 4 29.8
113 2 25.7 20.1 31 2 4 29.8
114 2 25.7 20.1 32 2 4 29.8
115 2 25.7 20.1 33 2 4 29.8
116 2 25.7 20.1 34 2 4 29.8
117 2 25.7 20.1 35 2 4 29.8
118 2 25.7 20.1 36 2 4 29.8
119 2 25.7 20.1 37 2 4 29.8
120 2 25.7 20.1 38 2 4 29.8
121 2 25.7 20.1 39 2 4 29.8
122 2 25.7 20.1 40 2 4 29.8
123 2 8.6 27.9 1 3 4 29.8
124 2 8.6 27.9 2 3 4 29.8
125 2 8.6 27.9 3 3 4 29.8
126 2 8.6 27.9 4 3 4 29.8
127 2 8.6 27.9 5 3 4 29.8
128 2 8.6 27.9 6 3 4 29.8
129 2 8.6 27.9 7 3 4 29.8
130 2 8.6 27.9 8 3 4 29.8
131 2 8.6 27.9 9 3 4 29.8
132 2 8.6 27.9 10 3 4 29.8
133 2 8.6 27.9 11 3 4 29.8
134 2 8.6 27.9 12 3 4 29.8
135 2 8.6 27.9 13 3 4 29.8
136 2 8.6 27.9 14 3 4 29.8
137 2 8.6 27.9 15 3 4 29.8
138 2 8.6 27.9 16 3 4 29.8
139 2 8.6 27.9 17 3 4 29.8
140 2 8.6 27.9 18 3 4 29.8
141 2 8.6 27.9 19 3 4 29.8
142 2 8.6 27.9 20 3 4 29.8
143 2 8.6 27.9 21 3 4 29.8
144 2 8.6 27.9 22 3 4 29.8
145 2 8.6 27.9 23 3 4 29.8
146 2 8.6 27.9 24 3 4 29.8
147 2 8.6 27.9 25 3 4 29.8
148 2 8.6 27.9 26 3 4 29.8
149 2 8.6 27.9 27 3 4 29.8
150 2 8.6 27.9 28 3 4 29.8
151 2 8.6 27.9 29 3 4 29.8
152 2 8.6 27.9 30 3 4 29.8
153 2 8.6 27.9 31 3 4 29.8
154 2 8.6 27.9 32 3 4 29.8
155 2 8.6 27.9 33 3 4 29.8
156 2 8.6 27.9 34 3 4 29.8
157 2 8.6 27.9 35 3 4 29.8
158 2 8.6 27.9 36 3 4 29.8
159 2 8.6 27.9 37 3 4 29.8
160 2 8.6 27.9 38 3 4 29.8
161 2 8.6 27.9 39 3 4 29.8
162 2 8.6 27.9 40 3 4 29.8
163 2 6.29 37.4 1 4 4 29.8
164 2 6.29 37.4 2 4 4 29.8
165 2 6.29 37.4 3 4 4 29.8
166 2 6.29 37.4 4 4 4 29.8
167 2 6.29 37.4 5 4 4 29.8
168 2 6.29 37.4 6 4 4 29.8
169 2 6.29 37.4 7 4 4 29.8
170 2 6.29 37.4 8 4 4 29.8
171 2 6.29 37.4 9 4 4 29.8
172 2 6.29 37.4 10 4 4 29.8
173 2 6.29 37.4 11 4 4 29.8
174 2 6.29 37.4 12 4 4 29.8
175 2 6.29 37.4 13 4 4 29.8
176 2 6.29 37.4 14 4 4 29.8
177 2 6.29 37.4 15 4 4 29.8
178 2 6.29 37.4 16 4 4 29.8
179 2 6.29 37.4 17 4 4 29.8
180 2 6.29 37.4 18 4 4 29.8
181 2 6.29 37.4 19 4 4 29.8
182 2 6.29 37.4 20 4 4 29.8
183 2 6.29 37.4 21 4 4 29.8
184 2 6.29 37.4 22 4 4 29.8
185 2 6.29 37.4 23 4 4 29.8
186 2 6.29 37.4 24 4 4 29.8
187 2 6.29 37.4 25 4 4 29.8
188 2 6.29 37.4 26 4 4 29.8
189 2 6.29 37.4 27 4 4 29.8
190 2 6.29 37.4 28 4 4 29.8
191 2 6.29 37.4 29 4 4 29.8
192 2 6.29 37.4 30 4 4 29.8
193 2 6.29 37.4 31 4 4 29.8
194 2 6.29 37.4 32 4 4 29.8
195 2 6.29 37.4 33 4 4 29.8
196 2 6.29 37.4 34 4 4 29.8
197 2 6.29 37.4 35 4 4 29.8
198 2 6.29 37.4 36 4 4 29.8
199 2 6.29 37.4 37 4 4 29.8
200 2 6.29 37.4 38 4 4 29.8
201 2 6.29 37.4 39 4 4 29.8
202 2 6.29 37.4 40 4 4 29.8
203 2 39 5.93 1 5 4 29.8
204 2 39 5.93 2 5 4 29.8
205 2 39 5.93 3 5 4 29.8
206 2 39 5.93 4 5 4 29.8
207 2 39 5.93 5 5 4 29.8
208 2 39 5.93 6 5 4 29.8
209 2 39 5.93 7 5 4 29.8
210 2 39 5.93 8 5 4 29.8
211 2 39 5.93 9 5 4 29.8
212 2 39 5.93 10 5 4 29.8
213 2 39 5.93 11 5 4 29.8
214 2 39 5.93 12 5 4 29.8
215 2 39 5.93 13 5 4 29.8
216 2 39 5.93 14 5 4 29.8
217 2 39 5.93 15 5 4 29.8
218 2 39 5.93 16 5 4 29.8
219 2 39 5.93 17 5 4 29.8
220 2 39 5.93 18 5 4 29.8
221 2 39 5.93 19 5 4 29.8
222 2 39 5.93 20 5 4 29.8
223 2 39 5.93 21 5 4 29.8
224 2 39 5.93 22 5 4 29.8
225 2 39 5.93 23 5 4 29.8
226 2 39 5.93 24 5 4 29.8
227 2 39 5.93 25 5 4 29.8
228 2 39 5.93 26 5 4 29.8
229 2 39 5.93 27 5 4 29.8
230 2 39 5.93 28 5 4 29.8
231 2 39 5.93 29 5 4 29.8
232 2 39 5.93 30 5 4 29.8
233 2 39 5.93 31 5 4 29.8
234 2 39 5.93 32 5 4 29.8
235 2 39 5.93 33 5 4 29.8
236 2 39 5.93 34 5 4 29.8
237 2 39 5.93 35 5 4 29.8
238 2 39 5.93 36 5 4 29.8
239 2 39 5.93 37 5 4 29.8
240 2 39 5.93 38 5 4 29.8
241 2 39 5.93 39 5 4 29.8
242 2 39 5.93 40 5 4 29.8
243 2 5.66 14.7 1 6 4 29.8
244 2 5.66 14.7 2 6 4 29.8
245 2 5.66 14.7 3 6 4 29.8
246 2 5.66 14.7 4 6 4 29.8
247 2 5.66 14.7 5 6 4 29.8
248 2 5.66 14.7 6 6 4 29.8
249 2 5.66 14.7 7 6 4 29.8
250 2 5.66 14.7 8 6 4 29.8
251 2 5.66 14.7 9 6 4 29.8
252 2 5.66 14.7 10 6 4 29.8
253 2 5.66 14.7 11 6 4 29.8
254 2 5.66 14.7 12 6 4 29.8
255 2 5.66 14.7 13 6 4 29.8
256 2 5.66 14.7 14 6 4 29.8
257 2 5.66 14.7 15 6 4 29.8
258 2 5.66 14.7 16 6 4 29.8
259 2 5.66 14.7 17 6 4 29.8
260 2 5.66 14.7 18 6 4 29.8
261 2 5.66 14.7 19 6 4 29.8
262 2 5.66 14.7 20 6 4 29.8
263 2 5.66 14.7 21 6 4 29.8
264 2 5.66 14.7 22 6 4 29.8
265 2 5.66 14.7 23 6 4 29.8
266 2 5.66 14.7 24 6 4 29.8
267 2 5.66 14.7 25 6 4 29.8
268 2 5.66 14.7 26 6 4 29.8
269 2 5.66 14.7 27 6 4 29.8
270 2 5.66 14.7 28 6 4 29.8
271 2 5.66 14.7 29 6 4 29.8
272 2 5.66 14.7 30 6 4 29.8
273 2 5.66 14.7 31 6 4 29.8
274 2 5.66 14.7 32 6 4 29.8
275 2 5.66 14.7 33 6 4 29.8
276 2 5.66 14.7 34 6 4 29.8
277 2 5.66 14.7 35 6 4 29.8
278 2 5.66 14.7 36 6 4 29.8
279 2 5.66 14.7 37 6 4 29.8
280 2 5.66 14.7 38 6 4 29.8
281 2 5.66 14.7 39 6 4 29.8
282 2 5.66 14.7 40 6 4 29.8
283 2 17 38.8 1 7 4 29.8
284 2 17 38.8 2 7 4 29.8
285 2 17 38.8 3 7 4 29.8
286 2 17 38.8 4 7 4 29.8
287 2 17 38.8 5 7 4 29.8
288 2 17 38.8 6 7 4 29.8
289 2 17 38.8 7 7 4 29.8
290 2 17 38.8 8 7 4 29.8
291 2 17 38.8 9 7 4 29.8
292 2 17 38.8 10 7 4 29.8
293 2 17 38.8 11 7 4 29.8
294 2 17 38.8 12 7 4 29.8
295 2 17 38.8 13 7 4 29.8
296 2 17 38.8 14 7 4 29.8
297 2 17 38.8 15 7 4 29.8
298 2 17 38.8 16 7 4 29.8
299 2 17 38.8 17 7 4 29.8
300 2 17 38.8 18 7 4 29.8
301 2 17 38.8 19 7 4 29.8
302 2 17 38.8 20 7 4 29.8
303 2 17 38.8 21 7 4 29.8
304 2 17 38.8 22 7 4 29.8
305 2 17 38.8 23 7 4 29.8
306 2 17 38.8 24 7 4 29.8
307 2 17 38.8 25 7 4 29.8
308 2 17 38.8 26 7 4 29.8
309 2 17 38.8 27 7 4 29.8
310 2 17 38.8 28 7 4 29.8
311 2 17 38.8 29 7 4 29.8
312 2 17 38.8 30 7 4 29.8
313 2 17 38.8 31 7 4 29.8
314 2 17 38.8 32 7 4 29.8
315 2 17 38.8 33 7 4 29.8
316 2 17 38.8 34 7 4 29.8
317 2 17 38.8 35 7 4 29.8
318 2 17 38.8 36 7 4 29.8
319 2 17 38.8 37 7 4 29.8
320 2 17 38.8 38 7 4 29.8
321 2 17 38.8 39 7 4 29.8
322 2 17 38.8 40 7 4 29.8
323 2 27.5 3.69 1 8 4 29.8
324 2 27.5 3.69 2 8 4 29.8
325 2 27.5 3.69 3 8 4 29.8
326 2 27.5 3.69 4 8 4 29.8
327 2 27.5 3.69 5 8 4 29.8
328 2 27.5 3.69 6 8 4 29.8
329 2 27.5 3.69 7 8 4 29.8
330 2 27.5 3.69 8 8 4 29.8
331 2 27.5 3.69 9 8 4 29.8
332 2 27.5 3.69 10 8 4 29.8
333 2 27.5 3.69 11 8 4 29.8
334 2 27.5 3.69 12 8 4 29.8
335 2 27.5 3.69 13 8 4 29.8
336 2 27.5 3.69 14 8 4 29.8
337 2 27.5 3.69 15 8 4 29.8
338 2 27.5 3.69 16 8 4 29.8
339 2 27.5 3.69 17 8 4 29.8
340 2 27.5 3.69 18 8 4 29.8
341 2 27.5 3.69 19 8 4 29.8
342 2 27.5 3.69 20 8 4 29.8
343 2 27.5 3.69 21 8 4 29.8
344 2 27.5 3.69 22 8 4 29.8
345 2 27.5 3.69 23 8 4 29.8
346 2 27.5 3.69 24 8 4 29.8
347 2 27.5 3.69 25 8 4 29.8
348 2 27.5 3.69 26 8 4 29.8
349 2 27.5 3.69 27 8 4 29.8
350 2 27.5 3.69 28 8 4 29.8
351 2 27.5 3.69 29 8 4 29.8
352 2 27.5 3.69 30 8 4 29.8
353 2 27.5 3.69 31 8 4 29.8
354 2 27.5 3.69 32 8 4 29.8
355 2 27.5 3.69 33 8 4 29.8
356 2 27.5 3.69 34 8 4 29.8
357 2 27.5 3.69 35 8 4 29.8
358 2 27.5 3.69 36 8 4 29.8
359 2 27.5 3.69 37 8 4 29.8
360 2 27.5 3.69 38 8 4 29.8
361 2 27.5 3.69 39 8 4 29.8
362 2 27.5 3.69 40 8 4 29.8
363 2 21.6 32.6 1 9 4 29.8
364 2 21.6 32.6 2 9 4 29.8
365 2 21.6 32.6 3 9 4 29.8
366 2 21.6 32.6 4 9 4 29.8
367 2 21.6 32.6 5 9 4 29.8
368 2 21.6 32.6 6 9 4 29.8
369 2 21.6 32.6 7 9 4 29.8
370 2 21.6 32.6 8 9 4 29.8
371 2 21.6 32.6 9 9 4 29.8
372 2 21.6 32.6 10 9 4 29.8
373 2 21.6 32.6 11 9 4 29.8
374 2 21.6 32.6 12 9 4 29.8
375 2 21.6 32.6 13 9 4 29.8
376 2 21.6 32.6 14 9 4 29.8
377 2 21.6 32.6 15 9 4 29.8
378 2 21.6 32.6 16 9 4 29.8
379 2 21.6 32.6 17 9 4 29.8
380 2 21.6 32.6 18 9 4 29.8
381 2 21.6 32.6 19 9 4 29.8
382 2 21.6 32.6 20 9 4 29.8
383 2 21.6 32.6 21 9 4 29.8
384 2 21.6 32.6 22 9 4 29.8
385 2 21.6 32.6 23 9 4 29.8
386 2 21.6 32.6 24 9 4 29.8
387 2 21.6 32.6 25 9 4 29.8
388 2 21.6 32.6 26 9 4 29.8
389 2 21.6 32.6 27 9 4 29.8
390 2 21.6 32.6 28 9 4 29.8
391 2 21.6 32.6 29 9 4 29.8
392 2 21.6 32.6 30 9 4 29.8
393 2 21.6 32.6 31 9 4 29.8
394 2 21.6 32.6 32 9 4 29.8
395 2 21.6 32.6 33 9 4 29.8
396 2 21.6 32.6 34 9 4 29.8
397 2 21.6 32.6 35 9 4 29.8
398 2 21.6 32.6 36 9 4 29.8
399 2 21.6 32.6 37 9 4 29.8
400 2 21.6 32.6 38 9 4 29.8
401 2 21.6 32.6 39 9 4 29.8
402 2 21.6 32.6 40 9 4 29.8
403 2 31.5 33.8 1 10 4 29.8
404 2 31.5 33.8 2 10 4 29.8
405 2 31.5 33.8 3 10 4 29.8
406 2 31.5 33.8 4 10 4 29.8
407 2 31.5 33.8 5 10 4 29.8
408 2 31.5 33.8 6 10 4 29.8
409 2 31.5 33.8 7 10 4 29.8
410 2 31.5 33.8 8 10 4 29.8
411 2 31.5 33.8 9 10 4 29.8
412 2 31.5 33.8 10 10 4 29.8
413 2 31.5 33.8 11 10 4 29.8
414 2 31.5 33.8 12 10 4 29.8
415 2 31.5 33.8 13 10 4 29.8
416 2 31.5 33.8 14 10 4 29.8
417 2 31.5 33.8 15 10 4 29.8
418 2 31.5 33.8 16 10 4 29.8
419 2 31.5 33.8 17 10 4 29.8
420 2 31.5 33.8 18 10 4 29.8
421 2 31.5 33.8 19 10 4 29.8
422 2 31.5 33.8 20 10 4 29.8
423 2 31.5 33.8 21 10 4 29.8
424 2 31.5 33.8 22 10 4 29.8
425 2 31.5 33.8 23 10 4 29.8
426 2 31.5 33.8 24 10 4 29.8
427 2 31.5 33.8 25 10 4 29.8
428 2 31.5 33.8 26 10 4 29.8
429 2 31.5 33.8 27 10 4 29.8
430 2 31.5 33.8 28 10 4 29.8
431 2 31.5 33.8 29 10 4 29.8
432 2 31.5 33.8 30 10 4 29.8
433 2 31.5 33.8 31 10 4 29.8
434 2 31.5 33.8 32 10 4 29.8
435 2 31.5 33.8 33 10 4 29.8
436 2 31.5 33.8 34 10 4 29.8
437 2 31.5 33.8 35 10 4 29.8
438 2 31.5 33.8 36 10 4 29.8
439 2 31.5 33.8 37 10 4 29.8
440 2 31.5 33.8 38 10 4 29.8
441 2 31.5 33.8 39 10 4 29.8
442 2 31.5 33.8 40 10 4 29.8
443 2 0.134 30.8 1 11 4 29.8
444 2 0.134 30.8 2 11 4 29.8
445 2 0.134 30.8 3 11 4 29.8
446 2 0.134 30.8 4 11 4 29.8
447 2 0.134 30.8 5 11 4 29.8
448 2 0.134 30.8 6 11 4 29.8
449 2 0.134 30.8 7 11 4 29.8
450 2 0.134 30.8 8 11 4 29.8
451 2 0.134 30.8 9 11 4 29.8
452 2 0.134 30.8 10 11 4 29.8
453 2 0.134 30.8 11 11 4 29.8
454 2 0.134 30.8 12 11 4 29.8
455 2 0.134 30.8 13 11 4 29.8
456 2 0.134 30.8 14 11 4 29.8
457 2 0.134 30.8 15 11 4 29.8
458 2 0.134 30.8 16 11 4 29.8
459 2 0.134 30.8 17 11 4 29.8
460 2 0.134 30.8 18 11 4 29.8
461 2 0.134 30.8 19 11 4 29.8
462 2 0.134 30.8 20 11 4 29.8
463 2 0.134 30.8 21 11 4 29.8
464 2 0.134 30.8 22 11 4 29.8
465 2 0.134 30.8 23 11 4 29.8
466 2 0.134 30.8 24 11 4 29.8
467 2 0.134 30.8 25 11 4 29.8
468 2 0.134 30.8 26 11 4 29.8
469 2 0.134 30.8 27 11 4 29.8
470 2 0.134 30.8 28 11 4 29.8
471 2 0.134 30.8 29 11 4 29.8
472 2 0.134 30.8 30 11 4 29.8
473 2 0.134 30.8 31 11 4 29.8
474 2 0.134 30.8 32 11 4 29.8
475 2 0.134 30.8 33 11 4 29.8
476 2 0.134 30.8 34 11 4 29.8
477 2 0.134 30.8 35 11 4 29.8
478 2 0.134 30.8 36 11 4 29.8
479 2 0.134 30.8 37 11 4 29.8
480 2 0.134 30.8 38 11 4 29.8
481 2 0.134 30.8 39 11 4 29.8
482 2 0.134 30.8 40 11 4 29.8
483 2 0.809 21.7 1 12 4 29.8
484 2 0.809 21.7 2 12 4 29.8
485 2 0.809 21.7 3 12 4 29.8
486 2 0.809 21.7 4 12 4 29.8
487 2 0.809 21.7 5 12 4 29.8
488 2 0.809 21.7 6 12 4 29.8
489 2 0.809 21.7 7 12 4 29.8
490 2 0.809 21.7 8 12 4 29.8
491 2 0.809 21.7 9 12 4 29.8
492 2 0.809 21.7 10 12 4 29.8
493 2 0.809 21.7 11 12 4 29.8
494 2 0.809 21.7 12 12 4 29.8
495 2 0.809 21.7 13 12 4 29.8
496 2 0.809 21.7 14 12 4 29.8
497 2 0.809 21.7 15 12 4 29.8
498 2 0.809 21.7 16 12 4 29.8
499 2 0.809 21.7 17 12 4 29.8
500 2 0.809 21.7 18 12 4 29.8
501 2 0.809 21.7 19 12 4 29.8
502 2 0.809 21.7 20 12 4 29.8
503 2 0.809 21.7 21 12 4 29.8
504 2 0.809 21.7 22 12 4 29.8
505 2 0.809 21.7 23 12 4 29.8
506 2 0.809 21.7 24 12 4 29.8
507 2 0.809 21.7 25 12 4 29.8
508 2 0.809 21.7 26 12 4 29.8
509 2 0.809 21.7 27 12 4 29.8
510 2 0.809 21.7 28 12 4 29.8
511 2 0.809 21.7 29 12 4 29.8
512 2 0.809 21.7 30 12 4 29.8
513 2 0.809 21.7 31 12 4 29.8
514 2 0.809 21.7 32 12 4 29.8
515 2 0.809 21.7 33 12 4 29.8
516 2 0.809 21.7 34 12 4 29.8
517 2 0.809 21.7 35 12 4 29.8
518 2 0.809 21.7 36 12 4 29.8
519 2 0.809 21.7 37 12 4 29.8
520 2 0.809 21.7 38 12 4 29.8
521 2 0.809 21.7 39 12 4 29.8
522 2 0.809 21.7 40 12 4 29.8
523 2 38.8 18.6 1 13 4 29.8
524 2 38.8 18.6 2 13 4 29.8
525 2 38.8 18.6 3 13 4 29.8
526 2 38.8 18.6 4 13 4 29.8
527 2 38.8 18.6 5 13 4 29.8
528 2 38.8 18.6 6 13 4 29.8
529 2 38.8 18.6 7 13 4 29.8
530 2 38.8 18.6 8 13 4 29.8
531 2 38.8 18.6 9 13 4 29.8
532 2 38.8 18.6 10 13 4 29.8
533 2 38.8 18.6 11 13 4 29.8
534 2 38.8 18.6 12 13 4 29.8
535 2 38.8 18.6 13 13 4 29.8
536 2 38.8 18.6 14 13 4 29.8
537 2 38.8 18.6 15 13 4 29.8
538 2 38.8 18.6 16 13 4 29.8
539 2 38.8 18.6 17 13 4 29.8
540 2 38.8 18.6 18 13 4 29.8
541 2 38.8 18.6 19 13 4 29.8
542 2 38.8 18.6 20 13 4 29.8
543 2 38.8 18.6 21 13 4 29.8
544 2 38.8 18.6 22 13 4 29.8
545 2 38.8 18.6 23 13 4 29.8
546 2 38.8 18.6 24 13 4 29.8
547 2 38.8 18.6 25 13 4 29.8
548 2 38.8 18.6 26 13 4 29.8
549 2 38.8 18.6 27 13 4 29.8
550 2 38.8 18.6 28 13 4 29.8
551 2 38.8 18.6 29 13 4 29.8
552 2 38.8 18.6 30 13 4 29.8
553 2 38.8 18.6 31 13 4 29.8
554 2 38.8 18.6 32 13 4 29.8
555 2 38.8 18.6 33 13 4 29.8
556 2 38.8 18.6 34 13 4 29.8
557 2 38.8 18.6 35 13 4 29.8
558 2 38.8 18.6 36 13 4 29.8
559 2 38.8 18.6 37 13 4 29.8
560 2 38.8 18.6 38 13 4 29.8
561 2 38.8 18.6 39 13 4 29.8
562 2 38.8 18.6 40 13 4 29.8
563 2 13.2 23 1 14 4 29.8
564 2 13.2 23 2 14 4 29.8
565 2 13.2 23 3 14 4 29.8
566 2 13.2 23 4 14 4 29.8
567 2 13.2 23 5 14 4 29.8
568 2 13.2 23 6 14 4 29.8
569 2 13.2 23 7 14 4 29.8
570 2 13.2 23 8 14 4 29.8
571 2 13.2 23 9 14 4 29.8
572 2 13.2 23 10 14 4 29.8
573 2 13.2 23 11 14 4 29.8
574 2 13.2 23 12 14 4 29.8
575 2 13.2 23 13 14 4 29.8
576 2 13.2 23 14 14 4 29.8
577 2 13.2 23 15 14 4 29.8
578 2 13.2 23 16 14 4 29.8
579 2 13.2 23 17 14 4 29.8
580 2 13.2 23 18 14 4 29.8
581 2 13.2 23 19 14 4 29.8
582 2 13.2 23 20 14 4 29.8
583 2 13.2 23 21 14 4 29.8
584 2 13.2 23 22 14 4 29.8
585 2 13.2 23 23 14 4 29.8
586 2 13.2 23 24 14 4 29.8
587 2 13.2 23 25 14 4 29.8
588 2 13.2 23 26 14 4 29.8
589 2 13.2 23 27 14 4 29.8
590 2 13.2 23 28 14 4 29.8
591 2 13.2 23 29 14 4 29.8
592 2 13.2 23 30 14 4 29.8
593 2 13.2 23 31 14 4 29.8
594 2 13.2 23 32 14 4 29.8
595 2 13.2 23 33 14 4 29.8
596 2 13.2 23 34 14 4 29.8
597 2 13.2 23 35 14 4 29.8
598 2 13.2 23 36 14 4 29.8
599 2 13.2 23 37 14 4 29.8
600 2 13.2 23 38 14 4 29.8
601 2 13.2 23 39 14 4 29.8
602 2 13.2 23 40 14 4 29.8
603 2 38.6 31.5 1 15 4 29.8
604 2 38.6 31.5 2 15 4 29.8
605 2 38.6 31.5 3 15 4 29.8
606 2 38.6 31.5 4 15 4 29.8
607 2 38.6 31.5 5 15 4 29.8
608 2 38.6 31.5 6 15 4 29.8
609 2 38.6 31.5 7 15 4 29.8
610 2 38.6 31.5 8 15 4 29.8
611 2 38.6 31.5 9 15 4 29.8
612 2 38.6 31.5 10 15 4 29.8
613 2 38.6 31.5 11 15 4 29.8
614 2 38.6 31.5 12 15 4 29.8
615 2 38.6 31.5 13 15 4 29.8
616 2 38.6 31.5 14 15 4 29.8
617 2 38.6 31.5 15 15 4 29.8
618 2 38.6 31.5 16 15 4 29.8
619 2 38.6 31.5 17 15 4 29.8
620 2 38.6 31.5 18 15 4 29.8
621 2 38.6 31.5 19 15 4 29.8
622 2 38.6 31.5 20 15 4 29.8
623 2 38.6 31.5 21 15 4 29.8
624 2 38.6 31.5 22 15 4 29.8
625 2 38.6 31.5 23 15 4 29.8
626 2 38.6 31.5 24 15 4 29.8
627 2 38.6 31.5 25 15 4 29.8
628 2 38.6 31.5 26 15 4 29.8
629 2 38.6 31.5 27 15 4 29.8
630 2 38.6 31.5 28 15 4 29.8
631 2 38.6 31.5 29 15 4 29.8
632 2 38.6 31.5 30 15 4 29.8
633 2 38.6 31.5 31 15 4 29.8
634 2 38.6 31.5 32 15 4 29.8
635 2 38.6 31.5 33 15 4 29.8
636 2 38.6 31.5 34 15 4 29.8
637 2 38.6 31.5 35 15 4 29.8
638 2 38.6 31.5 36 15 4 29.8
639 2 38.6 31.5 37 15 4 29.8
640 2 38.6 31.5 38 15 4 29.8
641 2 38.6 31.5 39 15 4 29.8
642 2 38.6 31.5 40 15 4 29.8
643 2 32.6 24.4 1 16 4 29.8
644 2 32.6 24.4 2 16 4 29.8
645 2 32.6 24.4 3 16 4 29.8
646 2 32.6 24.4 4 16 4 29.8
647 2 32.6 24.4 5 16 4 29.8
648 2 32.6 24.4 6 16 4 29.8
649 2 32.6 24.4 7 16 4 29.8
650 2 32.6 24.4 8 16 4 29.8
651 2 32.6 24.4 9 16 4 29.8
652 2 32.6 24.4 10 16 4 29.8
653 2 32.6 24.4 11 16 4 29.8
654 2 32.6 24.4 12 16 4 29.8
655 2 32.6 24.4 13 16 4 29.8
656 2 32.6 24.4 14 16 4 29.8
657 2 32.6 24.4 15 16 4 29.8
658 2 32.6 24.4 16 16 4 29.8
659 2 32.6 24.4 17 16 4 29.8
660 2 32.6 24.4 18 16 4 29.8
661 2 32.6 24.4 19 16 4 29.8
662 2 32.6 24.4 20 16 4 29.8
663 2 32.6 24.4 21 16 4 29.8
664 2 32.6 24.4 22 16 4 29.8
665 2 32.6 24.4 23 16 4 29.8
666 2 32.6 24.4 24 16 4 29.8
667 2 32.6 24.4 25 16 4 29.8
668 2 32.6 24.4 26 16 4 29.8
669 2 32.6 24.4 27 16 4 29.8
670 2 32.6 24.4 28 16 4 29.8
671 2 32.6 24.4 29 16 4 29.8
672 2 32.6 24.4 30 16 4 29.8
673 2 32.6 24.4 31 16 4 29.8
674 2 32.6 24.4 32 16 4 29.8
675 2 32.6 24.4 33 16 4 29.8
676 2 32.6 24.4 34 16 4 29.8
677 2 32.6 24.4 35 16 4 29.8
678 2 32.6 24.4 36 16 4 29.8
679 2 32.6 24.4 37 16 4 29.8
680 2 32.6 24.4 38 16 4 29.8
681 2 32.6 24.4 39 16 4 29.8
682 2 32.6 24.4 40 16 4 29.8
683 2 35.1 0.773 1 17 4 29.8
684 2 35.1 0.773 2 17 4 29.8
685 2 35.1 0.773 3 17 4 29.8
686 2 35.1 0.773 4 17 4 29.8
687 2 35.1 0.773 5 17 4 29.8
688 2 35.1 0.773 6 17 4 29.8
689 2 35.1 0.773 7 17 4 29.8
690 2 35.1 0.773 8 17 4 29.8
691 2 35.1 0.773 9 17 4 29.8
692 2 35.1 0.773 10 17 4 29.8
693 2 35.1 0.773 11 17 4 29.8
694 2 35.1 0.773 12 17 4 29.8
695 2 35.1 0.773 13 17 4 29.8
696 2 35.1 0.773 14 17 4 29.8
697 2 35.1 0.773 15 17 4 29.8
698 2 35.1 0.773 16 17 4 29.8
699 2 35.1 0.773 17 17 4 29.8
700 2 35.1 0.773 18 17 4 29.8
701 2 35.1 0.773 19 17 4 29.8
702 2 35.1 0.773 20 17 4 29.8
703 2 35.1 0.773 21 17 4 29.8
704 2 35.1 0.773 22 17 4 29.8
705 2 35.1 0.773 23 17 4 29.8
706 2 35.1 0.773 24 17 4 29.8
707 2 35.1 0.773 25 17 4 29.8
708 2 35.1 0.773 26 17 4 29.8
709 2 35.1 0.773 27 17 4 29.8
710 2 35.1 0.773 28 17 4 29.8
711 2 35.1 0.773 29 17 4 29.8
712 2 35.1 0.773 30 17 4 29.8
713 2 35.1 0.773 31 17 4 29.8
714 2 35.1 0.773 32 17 4 29.8
715 2 35.1 0.773 33 17 4 29.8
716 2 35.1 0.773 34 17 4 29.8
717 2 35.1 0.773 35 17 4 29.8
718 2 35.1 0.773 36 17 4 29.8
719 2 35.1 0.773 37 17 4 29.8
720 2 35.1 0.773 38 17 4 29.8
721 2 35.1 0.773 39 17 4 29.8
722 2 35.1 0.773 40 17 4 29.8
723 2 24.6 14.5 1 18 4 29.8
724 2 24.6 14.5 2 18 4 29.8
725 2 24.6 14.5 3 18 4 29.8
726 2 24.6 14.5 4 18 4 29.8
727 2 24.6 14.5 5 18 4 29.8
728 2 24.6 14.5 6 18 4 29.8
729 2 24.6 14.5 7 18 4 29.8
730 2 24.6 14.5 8 18 4 29.8
731 2 24.6 14.5 9 18 4 29.8
732 2 24.6 14.5 10 18 4 29.8
733 2 24.6 14.5 11 18 4 29.8
734 2 24.6 14.5 12 18 4 29.8
735 2 24.6 14.5 13 18 4 29.8
736 2 24.6 14.5 14 18 4 29.8
737 2 24.6 14.5 15 18 4 29.8
738 2 24.6 14.5 16 18 4 29.8
739 2 24.6 14.5 17 18 4 29.8
740 2 24.6 14.5 18 18 4 29.8
741 2 24.6 14.5 19 18 4 29.8
742 2 24.6 14.5 20 18 4 29.8
743 2 24.6 14.5 21 18 4 29.8
744 2 24.6 14.5 22 18 4 29.8
745 2 24.6 14.5 23 18 4 29.8
746 2 24.6 14.5 24 18 4 29.8
747 2 24.6 14.5 25 18 4 29.8
748 2 24.6 14.5 26 18 4 29.8
749 2 24.6 14.5 27 18 4 29.8
750 2 24.6 14.5 28 18 4 29.8
751 2 24.6 14.5 29 18 4 29.8
752 2 24.6 14.5 30 18 4 29.8
753 2 24.6 14.5 31 18 4 29.8
754 2 24.6 14.5 32 18 4 29.8
755 2 24.6 14.5 33 18 4 29.8
756 2 24.6 14.5 34 18 4 29.8
757 2 24.6 14.5 35 18 4 29.8
758 2 24.6 14.5 36 18 4 29.8
759 2 24.6 14.5 37 18 4 29.8
760 2 24.6 14.5 38 18 4 29.8
761 2 24.6 14.5 39 18 4 29.8
762 2 24.6 14.5 40 18 4 29.8
763 2 15.3 33.4 1 19 4 29.8
764 2 15.3 33.4 2 19 4 29.8
765 2 15.3 33.4 3 19 4 29.8
766 2 15.3 33.4 4 19 4 29.8
767 2 15.3 33.4 5 19 4 29.8
768 2 15.3 33.4 6 19 4 29.8
769 2 15.3 33.4 7 19 4 29.8
770 2 15.3 33.4 8 19 4 29.8
771 2 15.3 33.4 9 19 4 29.8
772 2 15.3 33.4 10 19 4 29.8
773 2 15.3 33.4 11 19 4 29.8
774 2 15.3 33.4 12 19 4 29.8
775 2 15.3 33.4 13 19 4 29.8
776 2 15.3 33.4 14 19 4 29.8
777 2 15.3 33.4 15 19 4 29.8
778 2 15.3 33.4 16 19 4 29.8
779 2 15.3 33.4 17 19 4 29.8
780 2 15.3 33.4 18 19 4 29.8
781 2 15.3 33.4 19 19 4 29.8
782 2 15.3 33.4 20 19 4 29.8
783 2 15.3 33.4 21 19 4 29.8
784 2 15.3 33.4 22 19 4 29.8
785 2 15.3 33.4 23 19 4 29.8
786 2 15.3 33.4 24 19 4 29.8
787 2 15.3 33.4 25 19 4 29.8
788 2 15.3 33.4 26 19 4 29.8
789 2 15.3 33.4 27 19 4 29.8
790 2 15.3 33.4 28 19 4 29.8
791 2 15.3 33.4 29 19 4 29.8
792 2 15.3 33.4 30 19 4 29.8
793 2 15.3 33.4 31 19 4 29.8
794 2 15.3 33.4 32 19 4 29.8
795 2 15.3 33.4 33 19 4 29.8
796 2 15.3 33.4 34 19 4 29.8
797 2 15.3 33.4 35 19 4 29.8
798 2 15.3 33.4 36 19 4 29.8
799 2 15.3 33.4 37 19 4 29.8
800 2 15.3 33.4 38 19 4 29.8
801 2 15.3 33.4 39 19 4 29.8
802 2 15.3 33.4 40 19 4 29.8
803 2 25.8 26.7 1 20 4 29.8
804 2 25.8 26.7 2 20 4 29.8
805 2 25.8 26.7 3 20 4 29.8
806 2 25.8 26.7 4 20 4 29.8
807 2 25.8 26.7 5 20 4 29.8
808 2 25.8 26.7 6 20 4 29.8
809 2 25.8 26.7 7 20 4 29.8
810 2 25.8 26.7 8 20 4 29.8
811 2 25.8 26.7 9 20 4 29.8
812 2 25.8 26.7 10 20 4 29.8
813 2 25.8 26.7 11 20 4 29.8
814 2 25.8 26.7 12 20 4 29.8
815 2 25.8 26.7 13 20 4 29.8
816 2 25.8 26.7 14 20 4 29.8
817 2 25.8 26.7 15 20 4 29.8
818 2 25.8 26.7 16 20 4 29.8
819 2 25.8 26.7 17 20 4 29.8
820 2 25.8 26.7 18 20 4 29.8
821 2 25.8 26.7 19 20 4 29.8
822 2 25.8 26.7 20 20 4 29.8
823 2 25.8 26.7 21 20 4 29.8
824 2 25.8 26.7 22 20 4 29.8
825 2 25.8 26.7 23 20 4 29.8
826 2 25.8 26.7 24 20 4 29.8
827 2 25.8 26.7 25 20 4 29.8
828 2 25.8 26.7 26 20 4 29.8
829 2 25.8 26.7 27 20 4 29.8
830 2 25.8 26.7 28 20 4 29.8
831 2 25.8 26.7 29 20 4 29.8
832 2 25.8 26.7 30 20 4 29.8
833 2 25.8 26.7 31 20 4 29.8
834 2 25.8 26.7 32 20 4 29.8
835 2 25.8 26.7 33 20 4 29.8
836 2 25.8 26.7 34 20 4 29.8
837 2 25.8 26.7 35 20 4 29.8
838 2 25.8 26.7 36 20 4 29.8
839 2 25.8 26.7 37 20 4 29.8
840 2 25.8 26.7 38 20 4 29.8
841 2 25.8 26.7 39 20 4 29.8
842 2 25.8 26.7 40 20 4 29.8
843 2 0.886 1.66 1 21 4 29.8
844 2 0.886 1.66 2 21 4 29.8
845 2 0.886 1.66 3 21 4 29.8
846 2 0.886 1.66 4 21 4 29.8
847 2 0.886 1.66 5 21 4 29.8
848 2 0.886 1.66 6 21 4 29.8
849 2 0.886 1.66 7 21 4 29.8
850 2 0.886 1.66 8 21 4 29.8
851 2 0.886 1.66 9 21 4 29.8
852 2 0.886 1.66 10 21 4 29.8
853 2 0.886 1.66 11 21 4 29.8
854 2 0.886 1.66 12 21 4 29.8
855 2 0.886 1.66 13 21 4 29.8
856 2 0.886 1.66 14 21 4 29.8
857 2 0.886 1.66 15 21 4 29.8
858 2 0.886 1.66 16 21 4 29.8
859 2 0.886 1.66 17 21 4 29.8
860 2 0.886 1.66 18 21 4 29.8
861 2 0.886 1.66 19 21 4 29.8
862 2 0.886 1.66 20 21 4 29.8
863 2 0.886 1.66 21 21 4 29.8
864 2 0.886 1.66 22 21 4 29.8
865 2 0.886 1.66 23 21 4 29.8
866 2 0.886 1.66 24 21 4 29.8
867 2 0.886 1.66 25 21 4 29.8
868 2 0.886 1.66 26 21 4 29.8
869 2 0.886 1.66 27 21 4 29.8
870 2 0.886 1.66 28 21 4 29.8
871 2 0.886 1.66 29 21 4 29.8
872 2 0.886 1.66 30 21 4 29.8
873 2 0.886 1.66 31 21 4 29.8
874 2 0.886 1.66 32 21 4 29.8
875 2 0.886 1.66 33 21 4 29.8
876 2 0.886 1.66 34 21 4 29.8
877 2 0.886 1.66 35 21 4 29.8
878 2 0.886 1.66 36 21 4 29.8
879 2 0.886 1.66 37 21 4 29.8
880 2 0.886 1.66 38 21 4 29.8
881 2 0.886 1.66 39 21 4 29.8
882 2 0.886 1.66 40 21 4 29.8
883 2 31.8 16.4 1 22 4 29.8
884 2 31.8 16.4 2 22 4 29.8
885 2 31.8 16.4 3 22 4 29.8
886 2 31.8 16.4 4 22 4 29.8
887 2 31.8 16.4 5 22 4 29.8
888 2 31.8 16.4 6 22 4 29.8
889 2 31.8 16.4 7 22 4 29.8
890 2 31.8 16.4 8 22 4 29.8
891 2 31.8 16.4 9 22 4 29.8
892 2 31.8 16.4 10 22 4 29.8
893 2 31.8 16.4 11 22 4 29.8
894 2 31.8 16.4 12 22 4 29.8
895 2 31.8 16.4 13 22 4 29.8
896 2 31.8 16.4 14 22 4 29.8
897 2 31.8 16.4 15 22 4 29.8
898 2 31.8 16.4 16 22 4 29.8
899 2 31.8 16.4 17 22 4 29.8
900 2 31.8 16.4 18 22 4 29.8
901 2 31.8 16.4 19 22 4 29.8
902 2 31.8 16.4 20 22 4 29.8
903 2 31.8 16.4 21 22 4 29.8
904 2 31.8 16.4 22 22 4 29.8
905 2 31.8 16.4 23 22 4 29.8
906 2 31.8 16.4 24 22 4 29.8
907 2 31.8 16.4 25 22 4 29.8
908 2 31.8 16.4 26 22 4 29.8
909 2 31.8 16.4 27 22 4 29.8
910 2 31.8 16.4 28 22 4 29.8
911 2 31.8 16.4 29 22 4 29.8
912 2 31.8 16.4 30 22 4 29.8
913 2 31.8 16.4 31 22 4 29.8
914 2 31.8 16.4 32 22 4 29.8
915 2 31.8 16.4 33 22 4 29.8
916 2 31.8 16.4 34 22 4 29.8
917 2 31.8 16.4 35 22 4 29.8
918 2 31.8 16.4 36 22 4 29.8
919 2 31.8 16.4 37 22 4 29.8
920 2 31.8 16.4 38 22 4 29.8
921 2 31.8 16.4 39 22 4 29.8
922 2 31.8 16.4 40 22 4 29.8
923 2 2.77 8.35 1 23 4 29.8
924 2 2.77 8.35 2 23 4 29.8
925 2 2.77 8.35 3 23 4 29.8
926 2 2.77 8.35 4 23 4 29.8
927 2 2.77 8.35 5 23 4 29.8
928 2 2.77 8.35 6 23 4 29.8
929 2 2.77 8.35 7 23 4 29.8
930 2 2.77 8.35 8 23 4 29.8
931 2 2.77 8.35 9 23 4 29.8
932 2 2.77 8.35 10 23 4 29.8
933 2 2.77 8.35 11 23 4 29.8
934 2 2.77 8.35 12 23 4 29.8
935 2 2.77 8.35 13 23 4 29.8
936 2 2.77 8.35 14 23 4 29.8
937 2 2.77 8.35 15 23 4 29.8
938 2 2.77 8.35 16 23 4 29.8
939 2 2.77 8.35 17 23 4 29.8
940 2 2.77 8.35 18 23 4 29.8
941 2 2.77 8.35 19 23 4 29.8
942 2 2.77 8.35 20 23 4 29.8
943 2 2.77 8.35 21 23 4 29.8
944 2 2.77 8.35 22 23 4 29.8
945 2 2.77 8.35 23 23 4 29.8
946 2 2.77 8.35 24 23 4 29.8
947 2 2.77 8.35 25 23 4 29.8
948 2 2.77 8.35 26 23 4 29.8
949 2 2.77 8.35 27 23 4 29.8
950 2 2.77 8.35 28 23 4 29.8
951 2 2.77 8.35 29 23 4 29.8
952 2 2.77 8.35 30 23 4 29.8
953 2 2.77 8.35 31 23 4 29.8
954 2 2.77 8.35 32 23 4 29.8
955 2 2.77 8.35 33 23 4 29.8
956 2 2.77 8.35 34 23 4 29.8
957 2 2.77 8.35 35 23 4 29.8
958 2 2.77 8.35 36 23 4 29.8
959 2 2.77 8.35 37 23 4 29.8
960 2 2.77 8.35 38 23 4 29.8
961 2 2.77 8.35 39 23 4 29.8
962 2 2.77 8.35 40 23 4 29.8
963 2 17 10.2 1 24 4 29.8
964 2 17 10.2 2 24 4 29.8
965 2 17 10.2 3 24 4 29.8
966 2 17 10.2 4 24 4 29.8
967 2 17 10.2 5 24 4 29.8
968 2 17 10.2 6 24 4 29.8
969 2 17 10.2 7 24 4 29.8
970 2 17 10.2 8 24 4 29.8
971 2 17 10.2 9 24 4 29.8
972 2 17 10.2 10 24 4 29.8
973 2 17 10.2 11 24 4 29.8
974 2 17 10.2 12 24 4 29.8
975 2 17 10.2 13 24 4 29.8
976 2 17 10.2 14 24 4 29.8
977 2 17 10.2 15 24 4 29.8
978 2 17 10.2 16 24 4 29.8
979 2 17 10.2 17 24 4 29.8
980 2 17 10.2 18 24 4 29.8
981 2 17 10.2 19 24 4 29.8
982 2 17 10.2 20 24 4 29.8
983 2 17 10.2 21 24 4 29.8
984 2 17 10.2 22 24 4 29.8
985 2 17 10.2 23 24 4 29.8
986 2 17 10.2 24 24 4 29.8
987 2 17 10.2 25 24 4 29.8
988 2 17 10.2 26 24 4 29.8
989 2 17 10.2 27 24 4 29.8
990 2 17 10.2 28 24 4 29.8
991 2 17 10.2 29 24 4 29.8
992 2 17 10.2 30 24 4 29.8
993 2 17 10.2 31 24 4 29.8
994 2 17 10.2 32 24 4 29.8
995 2 17 10.2 33 24 4 29.8
996 2 17 10.2 34 24 4 29.8
997 2 17 10.2 35 24 4 29.8
998 2 17 10.2 36 24 4 29.8
999 2 17 10.2 37 24 4 29.8
1000 2 17 10.2 38 24 4 29.8
1001 2 17 10.2 39 24 4 29.8
1002 2 17 10.2 40 24 4 29.8
1003 2 9.13 8.15 1 25 4 29.8
1004 2 9.13 8.15 2 25 4 29.8
1005 2 9.13 8.15 3 25 4 29.8
1006 2 9.13 8.15 4 25 4 29.8
1007 2 9.13 8.15 5 25 4 29.8
1008 2 9.13 8.15 6 25 4 29.8
1009 2 9.13 8.15 7 25 4 29.8
1010 2 9.13 8.15 8 25 4 29.8
1011 2 9.13 8.15 9 25 4 29.8
1012 2 9.13 8.15 10 25 4 29.8
1013 2 9.13 8.15 11 25 4 29.8
1014 2 9.13 8.15 12 25 4 29.8
1015 2 9.13 8.15 13 25 4 29.8
1016 2 9.13 8.15 14 25 4 29.8
1017 2 9.13 8.15 15 25 4 29.8
1018 2 9.13 8.15 16 25 4 29.8
1019 2 9.13 8.15 17 25 4 29.8
1020 2 9.13 8.15 18 25 4 29.8
1021 2 9.13 8.15 19 25 4 29.8
1022 2 9.13 8.15 20 25 4 29.8
1023 2 9.13 8.15 21 25 4 29.8
1024 2 9.13 8.15 22 25 4 29.8
1025 2 9.13 8.15 23 25 4 29.8
1026 2 9.13 8.15 24 25 4 29.8
1027 2 9.13 8.15 25 25 4 29.8
1028 2 9.13 8.15 26 25 4 29.8
1029 2 9.13 8.15 27 25 4 29.8
1030 2 9.13 8.15 28 25 4 29.8
1031 2 9.13 8.15 29 25 4 29.8
1032 2 9.13 8.15 30 25 4 29.8
1033 2 9.13 8.15 31 25 4 29.8
1034 2 9.13 8.15 32 25 4 29.8
1035 2 9.13 8.15 33 25 4 29.8
1036 2 9.13 8.15 34 25 4 29.8
1037 2 9.13 8.15 35 25 4 29.8
1038 2 9.13 8.15 36 25 4 29.8
1039 2 9.13 8.15 37 25 4 29.8
1040 2 9.13 8.15 38 25 4 29.8
1041 2 9.13 8.15 39 25 4 29.8
1042 2 9.13 8.15 40 25 4 29.8
1043 2 24.3 38.9 1 26 4 29.8
1044 2 24.3 38.9 2 26 4 29.8
1045 2 24.3 38.9 3 26 4 29.8
1046 2 24.3 38.9 4 26 4 29.8
1047 2 24.3 38.9 5 26 4 29.8
1048 2 24.3 38.9 6 26 4 29.8
1049 2 24.3 38.9 7 26 4 29.8
1050 2 24.3 38.9 8 26 4 29.8
1051 2 24.3 38.9 9 26 4 29.8
1052 2 24.3 38.9 10 26 4 29.8
1053 2 24.3 38.9 11 26 4 29.8
1054 2 24.3 38.9 12 26 4 29.8
1055 2 24.3 38.9 13 26 4 29.8
1056 2 24.3 38.9 14 26 4 29.8
1057 2 24.3 38.9 15 26 4 29.8
1058 2 24.3 38.9 16 26 4 29.8